Job 20116_keto_isomer2 started on vm-linux2 at Tue Jan 28 15:56:39 2025
jobid: vm-linux2-0-6798e216

  +--------------------------------------------------------------------+
  |  Jaguar version 11.2, release 117                                  |
  |                                                                    |
  |  Copyright Schrodinger, Inc.                                       |
  |  All Rights Reserved.                                              |
  |                                                                    |
  |  The following have contributed to Jaguar (listed alphabetically): |
  |  Mike Beachy, Art Bochevarov, Dale Braden, Yixiang Cao,            |
  |  Alan Chien, Chris Cortis, Rich Friesner, Bill Goddard,            |
  |  Hod Greeley, Tom Hughes, Leif Jacobson, Jean-Marc Langlois,       |
  |  Daniel Levine, Daniel Mainz, Rob Murphy, Dean Philipp,            |
  |  Tom Pollard, Murco Ringnalda, Mark Watson, Haoyu Yu.              |
  |                                                                    |
  |  Use of this program should be acknowledged in publications as:    |
  |                                                                    |
  |  Jaguar, version 11.2, Schrodinger, Inc., New York, NY, 2021.      |
  |                                                                    |
  |  A. D. Bochevarov, E. Harder, T. F. Hughes, J. R. Greenwood,       |
  |  D. A. Braden, D. M. Philipp, D. Rinaldo, M. D. Halls,             |
  |  J. Zhang, R. A. Friesner, "Jaguar: A High-Performance Quantum     |
  |  Chemistry Software Program with Strengths in Life and Materials   |
  |  Sciences", Int. J. Quantum Chem., 2013, 113(18), 2110-2142.       |
  +--------------------------------------------------------------------+
  
  start of program pre
  
  Job name: 20116_keto_isomer2
  Executables used: /mnt/Data_4/SCHRODINGER_2021-2/jaguar-v11.2/bin/Linux-x86_64
  Temporary files : /home/vm/.schrodinger/tmp/20116_keto_isomer2#vm-linux2-0-6798e216
  Maestro file (input):  20116_keto_isomer2.mae
  Maestro file (output): 20116_keto_isomer2.01.mae
  
 Contents of input file: &gen section only
 ----------------Contents start----------------
&gen
irder=1
iuhf=0
isolv=2
basis=CC-PVTZ(-F)++
massav=1
scalfr=0.95
dftname=M06-2X
ifreq=1
nogas=0
ncanorb=378
&
 -----------------Contents end-----------------
 
  basis set:             cc-pvtz(-f)++                   
  net molecular charge:    0
  multiplicity:            1
  
  Using up to   4 threads per process
  
  number of basis functions....          404
  
 Input geometry:
                                   angstroms
  atom               x                 y                 z
  O1            1.7478690000     -1.5045680000     -0.0061720000 
  O2            1.8160920000      3.0902650000     -0.0095750000 
  O3           -2.7529080000     -2.8332260000     -0.0147530000 
  N4            1.7614390000      0.7887650000     -0.0081890000 
  N5           -0.2074990000      2.0069720000     -0.0043230000 
  N6           -0.9970500000     -1.5965020000     -0.0022060000 
  N7           -2.3360080000     -1.6835690000     -0.0178230000 
  C8           -0.3396460000     -0.3644730000     -0.0027580000 
  C9            1.1248630000     -0.4521600000     -0.0061370000 
  C10          -0.9490800000      0.8450900000     -0.0018830000 
  C11           1.1801440000      2.0544730000     -0.0076110000 
  H12          -2.0259260000      0.9499180000      0.0026500000 
  H13           2.7742960000      0.7745920000     -0.0105530000 
  H14          -0.6637660000      2.9076110000     -0.0030580000 
  H15          -0.4361330000     -2.4509480000      0.0044470000 
   
  principal moments of inertia:
        amu*angstrom^2:      191.17619      760.19949      951.36883
                g*cm^2: 3.17455495E-38 1.26234080E-37 1.57978491E-37
   
  rotational constants:
               cm^(-1):      0.08817850      0.02217527      0.01771934
                   GHz:      2.64352482      0.66479788      0.53121249
   
  Molecular weight:     156.10 amu
   
  Stoichiometry: C4N4H4O3
[running at reduced cpu priority]
  Molecular Point Group: C1      
  Point Group used: C1
  
  nuclear repulsion energy.......     591.894355148 hartrees
 
 Non-default options chosen:
   SCF calculation type: DFT(m06-2x)                 
   DFT=M06-2X (M06-2X)
   Solvation energy will be computed using PBF
   Vibrational frequencies and related properties will be computed
      from analytic second derivatives
   IR intensities will be computed
   Vibrational frequencies will be scaled by a factor of  0.950
   Naturally occuring average isotopic masses used 
   Thermochemical properties will be computed
   Solvent: water                                                           
   Internal dielectric constant:    1.000
   Continuum dielectric constant:  80.370
   Solvent probe molecule radius:   1.400
  
 Temporary integer options set:
     73=  2
  
   Fixing number of canonical orbitals to remain constant.
   Number of canonical orbitals to use:   378
  
  atom       vdw   vdw2    cov     mass  grid  daf  charge   basis
  O1        1.702  1.550  0.730   15.999    Y    Y      Y    cc-pvtz(-f)++
  O2        1.702  1.550  0.730   15.999    Y    Y      Y    cc-pvtz(-f)++
  O3        1.702  2.000  0.730   15.999    Y    Y      Y    cc-pvtz(-f)++
  N4        1.831  1.500  0.750   14.007    Y    Y      Y    cc-pvtz(-f)++
  N5        1.831  1.500  0.750   14.007    Y    Y      Y    cc-pvtz(-f)++
  N6        1.831  1.550  0.750   14.007    Y    Y      Y    cc-pvtz(-f)++
  N7        1.831  1.500  0.750   14.007    Y    Y      Y    cc-pvtz(-f)++
  C8        1.949  2.000  0.770   12.011    Y    Y      Y    cc-pvtz(-f)++
  C9        1.949  2.000  0.770   12.011    Y    Y      Y    cc-pvtz(-f)++
  C10       1.949  2.000  0.770   12.011    Y    Y      Y    cc-pvtz(-f)++
  C11       1.949  2.000  0.770   12.011    Y    Y      Y    cc-pvtz(-f)++
  H12       1.597  1.250  0.320    1.008    Y    Y      Y    cc-pvtz(-f)++
  H13       1.597  1.150  0.320    1.008    Y    Y      Y    cc-pvtz(-f)++
  H14       1.597  1.150  0.320    1.008    Y    Y      Y    cc-pvtz(-f)++
  H15       1.597  1.150  0.320    1.008    Y    Y      Y    cc-pvtz(-f)++
  
  end of program pre
   
 Time(pre)  user:        2.5  user+sys:        2.5  wallclock:        1.3
  
  start of program onee
  
  smallest eigenvalue of S:    4.062E-06
  Set cut 20/10 to   5.016099316564759E-004
  number of canonical orbitals.....          378
  end of program onee
   
 Time(onee)  user:        0.7  user+sys:        0.7  wallclock:        0.2
  
  start of program hfig
  
  initial wavefunction generated automatically from atomic wavefunctions
 
  Irreducible     Total no   No of occupied orbitals 
  representation  orbitals   Shell_1  Shell_2    ...
  No Symm          378         40
  ------------------------
  Orbital occupation/shell    1.000
 
  end of program hfig
   
 Time(hfig)  user:        0.9  user+sys:        0.9  wallclock:        0.3
  
  start of program probe
  
  end of program probe
   
 Time(probe)  user:        0.5  user+sys:        0.5  wallclock:        0.1
  
  start of program grid
  
   grid     grid set  grid #  grid sym
  ------    --------  ------  --------
  coarse        0        0        1
  medium        2        1        1
  fine          0        0        1
  ultrafine     4        2        1
  charge       -1        3        1
  gradient      4        2        1
  density       0        0        1
  DFT-fine    -11        4        1
  DFT-med.    -10        5        1
  DFT-grad    -12        6        1
  DFT-der2     -8        7        1
  DFT-cphf     -9        8        1
  LMP2-enrg     4        2        1
  LMP2-grad     2        1        1
  DFT-cphf2   -15        9        1
  PBF-dens      0        0        1
  plotting      0        0        1
  Rel-grad    -17        0        1
  
  number of gridpoints: 
     atom        O1       O2       O3       N4       N5       N6       N7
  grid # 1      728      734      742      531      525      526      629
  grid # 2      728      734      742      531      525      526      629
  grid # 3      313      369      408       54       56       52      155
  grid # 4     5654     5654     5654     5654     5654     5654     5654
  grid # 5     2152     2152     2152     2152     2152     2152     2152
  grid # 6    19580    19580    19580    19580    19580    19580    19580
  grid # 7    63040    63040    63040    62394    62394    62394    62394
  grid # 8     7568     7568     7568     8972     8972     8972     8972
  grid # 9     1434     1434     1434     3852     3852     3852     3852
   
  number of gridpoints: 
     atom        C8       C9      C10      C11      H12      H13      H14
  grid # 1      523      503      478      506      222      226      226
  grid # 2      523      503      478      506      221      223      225
  grid # 3       60       56       50       56      358      400      403
  grid # 4     5654     5654     5654     5654     5654     5654     5654
  grid # 5     2152     2152     2152     2152     2152     2152     2152
  grid # 6    19580    19580    19580    19580    19580    19580    19580
  grid # 7    62658    62658    62658    62658    66806    66806    66806
  grid # 8     9014     9014     9014     9014     9848     9848     9848
  grid # 9     3806     3806     3806     3806     2486     2486     2486
   
  number of gridpoints: 
     atom       H15    total
  grid # 1      222     7321
  grid # 2      219     7313
  grid # 3      318     3108
  grid # 4     5654    84810
  grid # 5     2152    32280
  grid # 6    19580   293700
  grid # 7    66806   956552
  grid # 8     9848   134040
  grid # 9     2486    44878
   
  end of program grid
   
 Time(grid)  user:        5.8  user+sys:        5.8  wallclock:        1.6
  
  start of program rwr
  
  end of program rwr
   
 Time(rwr)  user:        4.1  user+sys:        4.1  wallclock:        1.1
  
  start of program scf
  
 number of electrons..........         80
 number of alpha electrons....         40
 number of beta electrons.....         40
 number of orbitals, total....        378
 number of doubly-occ'd orbs..         40
 number of open shell orbs....          0
 number of occupied orbitals..         40
 number of virtual orbitals...        338
 number of hamiltonians.......          1
 number of shells.............          1
 SCF type: DFT=M06-2X (M06-2X)
 Energy computed with NOPS off.
 Convergence Criterion:
    Energy (econv):       1.00E-05
    RMS density (dconv):  5.00E-06
  
       i  u  d  i  g                   
       t  p  i  c  r                                 RMS    maximum
       e  d  i  u  i                       energy  density   DIIS  
       r  t  s  t  d       total energy    change  change    error 
  
etot    1  N  N  5  M    -597.38605907576           3.4E-03  1.5E-01
etot    2  Y  Y  6  M    -596.03396561666 -1.4E+00  3.3E-03  1.8E-01
etot    3  Y  Y  6  M    -598.16247420741  2.1E+00  1.6E-03  9.6E-02
etot    4  N  Y  2  U    -599.36214992672  1.2E+00  6.5E-04  2.9E-02
etot    5  Y  Y  6  M    -599.41826794592  5.6E-02  3.1E-04  1.6E-02
etot    6  N  Y  2  U    -599.45478215935  3.7E-02  8.4E-05  6.0E-03
etot    7  Y  Y  6  M    -599.45715292332  2.4E-03  4.1E-05  2.2E-03
etot    8  N  Y  2  U    -599.45751899189  3.7E-04  1.9E-05  6.1E-04
etot    9  N  Y  2  U    -599.45759309435  7.4E-05  1.1E-05  3.7E-04
etot   10  N  Y  2  U    -599.45761651023  2.3E-05  4.7E-06  1.7E-04
etot   11  N  N  2  U    -599.45762081134  4.3E-06  0.0E+00  0.0E+00
  
  
 Energy components, in hartrees:
   (A)  Nuclear repulsion............     591.89435514816
   (E)  Total one-electron terms.....   -1989.63714616421
   (F)    Electron-nuclear...........   -2585.42374659338
   (H)    Kinetic....................     595.78660042916
   (I)  Total two-electron terms.....     798.28517020471
   (J)    Coulomb....................     874.60319483084
   (K)    Exchange+Correlation.......     -76.31802462613
   (L)  Electronic energy............   -1191.35197595950  (E+I)
   (M)  -V/T.........................       2.00616163636  (-(A+F+I)/H)
   (N)  Total energy.................    -599.45762081134  (A+L)
   (O)  Gas phase energy.............    -599.45762081134
  
 SCFE: SCF energy: DFT(m06-2x)      -599.45762081134 hartrees   iterations:  11
  
 
 HOMO energy:    -0.30017
 LUMO energy:    -0.05843
 
  Orbital energies (hartrees): 
   -19.67738   -19.64404   -19.63528   -14.91881   -14.85040   -14.84553
   -14.83604   -10.72667   -10.70431   -10.64773   -10.63521    -1.30606
    -1.23036    -1.20562    -1.12328    -1.10351    -1.06707    -0.92589
    -0.83871    -0.78465    -0.78335    -0.71825    -0.67095    -0.62441
    -0.61810    -0.61107    -0.59771    -0.58437    -0.57238    -0.54589
    -0.52913    -0.51744    -0.50728    -0.47335    -0.41329    -0.40567
    -0.38422    -0.38203    -0.34254    -0.30017    -0.05843    -0.02114
    -0.01400    -0.00255     0.00815     0.01374     0.02095     0.02664
     0.03754     0.04468
 
  end of program scf
   
 Time(scf)  user:      132.5  user+sys:      132.5  wallclock:       34.1
  
  start of program ch
  
  gridpoints used for charge fit         2952
    out of a possible maximum of         3108
  
   Electrostatic potential fitting constrained to reproduce
     total charge:                yes
     dipole moment:               no 
     traceless quadrupole moment: no 
     traceless octupole moment:   no 
  
  Atomic charges from electrostatic potential: 
   
 Atom       O1           O2           O3           N4           N5      
 Charge   -0.50610     -0.52892     -0.25598     -0.38457     -0.44217
   
 Atom       N6           N7           C8           C9           C10     
 Charge    0.19599     -0.04556     -0.35085      0.58007      0.18477
   
 Atom       C11          H12          H13          H14          H15     
 Charge    0.59515      0.09531      0.31282      0.35084      0.19919
  
  sum of atomic charges:    -0.000000
   
 RMS Error   1.49E-03 hartrees
 
  end of program ch
   
 Time(ch)  user:        3.1  user+sys:        3.1  wallclock:        1.8
  
  start of program post
  
  Writing input files for PBF
  end of program post
   
 Time(post)  user:        1.7  user+sys:        1.7  wallclock:        1.0

  start of program pbf

Pbf Version 4.10

Molecular surface area:      159.79307   [A2]
Reaction field energy:       -28.05562   [kT]

Solvent-accessible surface area:  328.37214 [A2]
Cavity energy:                      4.53887 [kT]

  Peak memory usage: 480 Mb

  end of program pbf

 Time(pbf)  user:        0.1  user+sys:        0.2  wallclock:        0.3
  
  start of program solv
  
   number of surface charges from PBF    1824
   sum of surface charges      0.00013
   
  nuclear repulsion energy.......     591.894355148 hartrees
  end of program solv
   
 Time(solv)  user:        1.0  user+sys:        1.0  wallclock:        0.3
  
  start of program scf
  
 Energy computed with NOPS off.
 Convergence Criterion:
    Energy (econv):       1.00E-05
    RMS density (dconv):  5.00E-06
  
       i  u  d  i  g                   
       t  p  i  c  r                                 RMS    maximum
       e  d  i  u  i                       energy  density   DIIS  
       r  t  s  t  d       total energy    change  change    error 
  
etot    1  N  N  2  U    -599.51103092962           1.8E-04  5.6E-03
etot    2  Y  Y  6  M    -599.51824997744  7.2E-03  6.0E-05  4.2E-03
etot    3  N  Y  2  U    -599.51595434257 -2.3E-03  2.4E-05  1.3E-03
etot    4  N  Y  2  U    -599.51607943368  1.3E-04  9.9E-06  3.6E-04
etot    5  N  Y  2  U    -599.51609263476  1.3E-05  4.9E-06  3.6E-04
etot    6  N  Y  2  U    -599.51610286859  1.0E-05  1.8E-06  7.0E-05
etot    7  N  N  2  U    -599.51610350574  6.4E-07  0.0E+00  0.0E+00
  
  
 Energy components, in hartrees:
   (A)  Total zero-electron terms....     591.13928458248
   (B)    Nuclear-nuclear............     591.89435514816
   (C)    Nuclear-solvent............      -0.75507056568
   (E)  Total one-electron terms.....   -1988.70714511607
   (F)    Electron-nuclear...........   -2585.16468213665
   (G)    Electron-solvent...........       0.69155826760
   (H)    Kinetic....................     595.76597875298
   (I)  Total two-electron terms.....     798.05175702785
   (J)    Coulomb....................     874.37691803435
   (K)    Exchange+Correlation.......     -76.32516100650
   (L)  Electronic energy............   -1190.65538808822  (E+I)
   (N)  Total quantum mech. energy...    -599.51610350574  (A+L)
   (O)  Gas phase energy.............    -599.45762081134
   (P)  Solution phase energy........    -599.48229501776  (Q+R+S+T)
   (Q)    Total solute energy........    -599.45259120765  (N-C-G)
   (R)    Total solvent energy.......      -0.03175614904  (C/2+G/2)
   (S)    Solute cavity energy.......       0.00428338096
   (T)    First shell corr. factor...      -0.00223104203
   (U)  Reorganization energy........       0.00502960369  (Q-O)
   (V)  Solvation energy.............      -0.02467420643  (P-O)
  
 SCFE:  Solution phase energy: DFT(m06-2x)       -599.48229501776 hartrees
        SCF iterations:   7
  
 
 HOMO energy:    -0.29232
 LUMO energy:    -0.05181
 
  Orbital energies (hartrees): 
   -19.67304   -19.64004   -19.63475   -14.91518   -14.84418   -14.83262
   -14.82697   -10.72360   -10.70053   -10.63667   -10.62486    -1.30326
    -1.22743    -1.20455    -1.11513    -1.09645    -1.05574    -0.91699
    -0.82960    -0.77654    -0.77138    -0.70651    -0.66373    -0.61658
    -0.60756    -0.60195    -0.59029    -0.58382    -0.56830    -0.55005
    -0.52258    -0.51502    -0.50339    -0.46445    -0.40798    -0.40668
    -0.38280    -0.38096    -0.34071    -0.29232    -0.05181    -0.01022
    -0.00820     0.00442     0.01015     0.02016     0.02651     0.03169
     0.03957     0.04796
 
  end of program scf
   
 Time(scf)  user:       86.0  user+sys:       86.0  wallclock:       22.4
  
  start of program sole
  
    SCRF                   solvation energy
  iteration          Hartrees            kcal/mol
     0               0.0000000            0.0000
     1              -0.0246742          -15.4833
  
  solvation energy not yet converged... 
  
  end of program sole
   
 Time(sole)  user:        0.2  user+sys:        0.2  wallclock:        0.1
  
  start of program ch
  
  gridpoints used for charge fit         2952
    out of a possible maximum of         2952
  
   Electrostatic potential fitting constrained to reproduce
     total charge:                yes
     dipole moment:               no 
     traceless quadrupole moment: no 
     traceless octupole moment:   no 
  
  Atomic charges from electrostatic potential: 
   
 Atom       O1           O2           O3           N4           N5      
 Charge   -0.60916     -0.64085     -0.31356     -0.45255     -0.50155
   
 Atom       N6           N7           C8           C9           C10     
 Charge    0.28055     -0.06720     -0.46003      0.69596      0.26687
   
 Atom       C11          H12          H13          H14          H15     
 Charge    0.71133      0.10656      0.36132      0.40568      0.21662
  
  sum of atomic charges:    -0.000000
   
 RMS Error   1.47E-03 hartrees
 
  end of program ch
   
 Time(ch)  user:        3.1  user+sys:        3.1  wallclock:        1.7
  
  start of program post
  
  Writing input files for PBF
  end of program post
   
 Time(post)  user:        1.7  user+sys:        1.7  wallclock:        1.0

  start of program pbf

Pbf Version 4.10

Molecular surface area:      159.79307   [A2]
Reaction field energy:       -41.18221   [kT]

Solvent-accessible surface area:  328.37214 [A2]
Cavity energy:                      4.53887 [kT]

  Peak memory usage: 480 Mb

  end of program pbf

 Time(pbf)  user:        0.1  user+sys:        0.2  wallclock:        0.2
  
  start of program solv
  
   number of surface charges from PBF    1824
   sum of surface charges      0.00017
   
  nuclear repulsion energy.......     591.894355148 hartrees
  end of program solv
   
 Time(solv)  user:        0.8  user+sys:        0.8  wallclock:        0.2
  
  start of program scf
  
 Energy computed with NOPS off.
 Convergence Criterion:
    Energy (econv):       1.00E-05
    RMS density (dconv):  5.00E-06
  
       i  u  d  i  g                   
       t  p  i  c  r                                 RMS    maximum
       e  d  i  u  i                       energy  density   DIIS  
       r  t  s  t  d       total energy    change  change    error 
  
etot    1  N  N  2  U    -599.52947314916           4.8E-05  1.3E-03
etot    2  N  Y  2  U    -599.52960983720  1.4E-04  1.6E-05  1.0E-03
etot    3  N  Y  2  U    -599.52974998308  1.4E-04  5.5E-06  2.9E-04
etot    4  N  Y  2  U    -599.52975545659  5.5E-06  2.6E-06  9.9E-05
etot    5  N  N  2  U    -599.52975649322  1.0E-06  0.0E+00  0.0E+00
  
  
 Energy components, in hartrees:
   (A)  Total zero-electron terms....     590.94511027756
   (B)    Nuclear-nuclear............     591.89435514816
   (C)    Nuclear-solvent............      -0.94924487061
   (E)  Total one-electron terms.....   -1988.45707582559
   (F)    Electron-nuclear...........   -2585.08631390460
   (G)    Electron-solvent...........       0.86950950862
   (H)    Kinetic....................     595.75972857039
   (I)  Total two-electron terms.....     797.98220905481
   (J)    Coulomb....................     874.30825050046
   (K)    Exchange+Correlation.......     -76.32604144565
   (L)  Electronic energy............   -1190.47486677078  (E+I)
   (N)  Total quantum mech. energy...    -599.52975649322  (A+L)
   (O)  Gas phase energy.............    -599.45762081134
   (P)  Solution phase energy........    -599.48783647329  (Q+R+S+T)
   (Q)    Total solute energy........    -599.45002113123  (N-C-G)
   (R)    Total solvent energy.......      -0.03986768099  (C/2+G/2)
   (S)    Solute cavity energy.......       0.00428338096
   (T)    First shell corr. factor...      -0.00223104203
   (U)  Reorganization energy........       0.00759968011  (Q-O)
   (V)  Solvation energy.............      -0.03021566195  (P-O)
  
 SCFE:  Solution phase energy: DFT(m06-2x)       -599.48783647329 hartrees
        SCF iterations:   5
  
 
 HOMO energy:    -0.29022
 LUMO energy:    -0.05007
 
  Orbital energies (hartrees): 
   -19.67270   -19.63957   -19.63463   -14.91387   -14.84305   -14.82965
   -14.82461   -10.72251   -10.69935   -10.63437   -10.62166    -1.30274
    -1.22673    -1.20439    -1.11303    -1.09480    -1.05305    -0.91467
    -0.82742    -0.77464    -0.76861    -0.70393    -0.66207    -0.61548
    -0.60557    -0.59923    -0.58843    -0.58360    -0.56733    -0.55064
    -0.52085    -0.51451    -0.50245    -0.46202    -0.40686    -0.40658
    -0.38302    -0.38018    -0.34048    -0.29022    -0.05007    -0.00921
    -0.00612     0.00586     0.01019     0.02178     0.02736     0.03324
     0.03858     0.05031
 
  end of program scf
   
 Time(scf)  user:       59.1  user+sys:       59.1  wallclock:       15.5
  
  start of program sole
  
    SCRF                   solvation energy
  iteration          Hartrees            kcal/mol
     0               0.0000000            0.0000
     1              -0.0246742          -15.4833
     2              -0.0302157          -18.9606
  
  solvation energy not yet converged... 
  
  end of program sole
   
 Time(sole)  user:        0.2  user+sys:        0.2  wallclock:        0.1
  
  start of program ch
  
  gridpoints used for charge fit         2952
    out of a possible maximum of         2952
  
   Electrostatic potential fitting constrained to reproduce
     total charge:                yes
     dipole moment:               no 
     traceless quadrupole moment: no 
     traceless octupole moment:   no 
  
  Atomic charges from electrostatic potential: 
   
 Atom       O1           O2           O3           N4           N5      
 Charge   -0.63255     -0.66561     -0.32755     -0.46904     -0.51020
   
 Atom       N6           N7           C8           C9           C10     
 Charge    0.30138     -0.07135     -0.48647      0.72148      0.29185
   
 Atom       C11          H12          H13          H14          H15     
 Charge    0.73774      0.10858      0.36895      0.41589      0.21690
  
  sum of atomic charges:    -0.000000
   
 RMS Error   1.46E-03 hartrees
 
  end of program ch
   
 Time(ch)  user:        3.1  user+sys:        3.1  wallclock:        1.7
  
  start of program post
  
  Writing input files for PBF
  end of program post
   
 Time(post)  user:        1.6  user+sys:        1.6  wallclock:        0.9

  start of program pbf

Pbf Version 4.10

Molecular surface area:      159.79307   [A2]
Reaction field energy:       -44.54380   [kT]

Solvent-accessible surface area:  328.37214 [A2]
Cavity energy:                      4.53887 [kT]

  Peak memory usage: 480 Mb

  end of program pbf

 Time(pbf)  user:        0.1  user+sys:        0.2  wallclock:        0.2
  
  start of program solv
  
   number of surface charges from PBF    1824
   sum of surface charges      0.00018
   
  nuclear repulsion energy.......     591.894355148 hartrees
  end of program solv
   
 Time(solv)  user:        0.8  user+sys:        0.8  wallclock:        0.2
  
  start of program scf
  
 Energy computed with NOPS off.
 Convergence Criterion:
    Energy (econv):       1.00E-05
    RMS density (dconv):  5.00E-06
  
       i  u  d  i  g                   
       t  p  i  c  r                                 RMS    maximum
       e  d  i  u  i                       energy  density   DIIS  
       r  t  s  t  d       total energy    change  change    error 
  
etot    1  N  N  2  U    -599.53291379677           1.3E-05  3.8E-04
etot    2  N  Y  2  U    -599.53292303062  9.2E-06  4.4E-06  2.8E-04
etot    3  N  Y  2  U    -599.53293441402  1.1E-05  1.6E-06  7.6E-05
etot    4  N  N  2  U    -599.53293490834  4.9E-07  0.0E+00  0.0E+00
  
  
 Energy components, in hartrees:
   (A)  Total zero-electron terms....     590.89797465252
   (B)    Nuclear-nuclear............     591.89435514816
   (C)    Nuclear-solvent............      -0.99638049564
   (E)  Total one-electron terms.....   -1988.39288208298
   (F)    Electron-nuclear...........   -2585.06435957010
   (G)    Electron-solvent...........       0.91273956900
   (H)    Kinetic....................     595.75873791812
   (I)  Total two-electron terms.....     797.96197252212
   (J)    Coulomb....................     874.28825950957
   (K)    Exchange+Correlation.......     -76.32628698746
   (L)  Electronic energy............   -1190.43090956086  (E+I)
   (N)  Total quantum mech. energy...    -599.53293490834  (A+L)
   (O)  Gas phase energy.............    -599.45762081134
   (P)  Solution phase energy........    -599.48906210609  (Q+R+S+T)
   (Q)    Total solute energy........    -599.44929398170  (N-C-G)
   (R)    Total solvent energy.......      -0.04182046332  (C/2+G/2)
   (S)    Solute cavity energy.......       0.00428338096
   (T)    First shell corr. factor...      -0.00223104203
   (U)  Reorganization energy........       0.00832682964  (Q-O)
   (V)  Solvation energy.............      -0.03144129475  (P-O)
  
 SCFE:  Solution phase energy: DFT(m06-2x)       -599.48906210609 hartrees
        SCF iterations:   4
  
 
 HOMO energy:    -0.28965
 LUMO energy:    -0.04958
 
  Orbital energies (hartrees): 
   -19.67166   -19.63984   -19.63480   -14.91415   -14.84341   -14.82821
   -14.82456   -10.72213   -10.69942   -10.63302   -10.62120    -1.30259
    -1.22663    -1.20461    -1.11242    -1.09457    -1.05246    -0.91412
    -0.82692    -0.77434    -0.76795    -0.70341    -0.66166    -0.61522
    -0.60504    -0.59859    -0.58805    -0.58362    -0.56714    -0.55075
    -0.52044    -0.51453    -0.50219    -0.46128    -0.40694    -0.40621
    -0.38331    -0.38025    -0.34031    -0.28965    -0.04958    -0.00909
    -0.00570     0.00618     0.01015     0.02217     0.02754     0.03364
     0.03833     0.05092
 
  end of program scf
   
 Time(scf)  user:       44.4  user+sys:       44.4  wallclock:       11.7
  
  start of program sole
  
    SCRF                   solvation energy
  iteration          Hartrees            kcal/mol
     0               0.0000000            0.0000
     1              -0.0246742          -15.4833
     2              -0.0302157          -18.9606
     3              -0.0314413          -19.7297
  
  solvation energy not yet converged... 
  
  end of program sole
   
 Time(sole)  user:        0.2  user+sys:        0.2  wallclock:        0.1
  
  start of program ch
  
  gridpoints used for charge fit         2952
    out of a possible maximum of         2952
  
   Electrostatic potential fitting constrained to reproduce
     total charge:                yes
     dipole moment:               no 
     traceless quadrupole moment: no 
     traceless octupole moment:   no 
  
  Atomic charges from electrostatic potential: 
   
 Atom       O1           O2           O3           N4           N5      
 Charge   -0.63859     -0.67107     -0.33213     -0.47329     -0.51160
   
 Atom       N6           N7           C8           C9           C10     
 Charge    0.30609     -0.07088     -0.49172      0.72772      0.29728
   
 Atom       C11          H12          H13          H14          H15     
 Charge    0.74390      0.10949      0.37010      0.41835      0.21635
  
  sum of atomic charges:    -0.000000
   
 RMS Error   1.46E-03 hartrees
 
  end of program ch
   
 Time(ch)  user:        2.9  user+sys:        2.9  wallclock:        1.5
  
  start of program post
  
  Writing input files for PBF
  end of program post
   
 Time(post)  user:        1.7  user+sys:        1.7  wallclock:        1.0

  start of program pbf

Pbf Version 4.10

Molecular surface area:      159.79307   [A2]
Reaction field energy:       -45.39707   [kT]

Solvent-accessible surface area:  328.37214 [A2]
Cavity energy:                      4.53887 [kT]

  Peak memory usage: 480 Mb

  end of program pbf

 Time(pbf)  user:        0.1  user+sys:        0.2  wallclock:        0.2
  
  start of program solv
  
   number of surface charges from PBF    1824
   sum of surface charges      0.00018
   
  nuclear repulsion energy.......     591.894355148 hartrees
  end of program solv
   
 Time(solv)  user:        0.8  user+sys:        0.8  wallclock:        0.2
  
  start of program scf
  
 Energy computed with NOPS off.
 Convergence Criterion:
    Energy (econv):       1.00E-05
    RMS density (dconv):  5.00E-06
  
       i  u  d  i  g                   
       t  p  i  c  r                                 RMS    maximum
       e  d  i  u  i                       energy  density   DIIS  
       r  t  s  t  d       total energy    change  change    error 
  
etot    1  N  N  2  U    -599.53372172997           4.3E-06  1.3E-04
etot    2  N  N  2  U    -599.53372273928  1.0E-06  0.0E+00  0.0E+00
  
  
 Energy components, in hartrees:
   (A)  Total zero-electron terms....     590.88502773667
   (B)    Nuclear-nuclear............     591.89435514816
   (C)    Nuclear-solvent............      -1.00932741149
   (E)  Total one-electron terms.....   -1988.37369547863
   (F)    Electron-nuclear...........   -2585.05726234381
   (G)    Electron-solvent...........       0.92462717495
   (H)    Kinetic....................     595.75893969023
   (I)  Total two-electron terms.....     797.95494500269
   (J)    Coulomb....................     874.28139921028
   (K)    Exchange+Correlation.......     -76.32645420759
   (L)  Electronic energy............   -1190.41875047595  (E+I)
   (N)  Total quantum mech. energy...    -599.53372273928  (A+L)
   (O)  Gas phase energy.............    -599.45762081134
   (P)  Solution phase energy........    -599.48932028207  (Q+R+S+T)
   (Q)    Total solute energy........    -599.44902250273  (N-C-G)
   (R)    Total solvent energy.......      -0.04235011827  (C/2+G/2)
   (S)    Solute cavity energy.......       0.00428338096
   (T)    First shell corr. factor...      -0.00223104203
   (U)  Reorganization energy........       0.00859830861  (Q-O)
   (V)  Solvation energy.............      -0.03169947074  (P-O)
  
 SCFE:  Solution phase energy: DFT(m06-2x)       -599.48932028207 hartrees
        SCF iterations:   2
  
 
 HOMO energy:    -0.28961
 LUMO energy:    -0.04956
 
  Orbital energies (hartrees): 
   -19.67175   -19.63894   -19.63440   -14.91403   -14.84305   -14.82897
   -14.82438   -10.72231   -10.69919   -10.63389   -10.62091    -1.30253
    -1.22654    -1.20432    -1.11246    -1.09445    -1.05246    -0.91409
    -0.82690    -0.77425    -0.76796    -0.70337    -0.66163    -0.61520
    -0.60506    -0.59856    -0.58797    -0.58347    -0.56708    -0.55071
    -0.52035    -0.51437    -0.50215    -0.46130    -0.40683    -0.40616
    -0.38305    -0.38010    -0.34028    -0.28961    -0.04956    -0.00901
    -0.00561     0.00626     0.01015     0.02226     0.02758     0.03369
     0.03828     0.05105
 
  end of program scf
   
 Time(scf)  user:       16.8  user+sys:       16.8  wallclock:        4.8
  
  start of program sole
  
    SCRF                   solvation energy
  iteration          Hartrees            kcal/mol
     0               0.0000000            0.0000
     1              -0.0246742          -15.4833
     2              -0.0302157          -18.9606
     3              -0.0314413          -19.7297
     4              -0.0316995          -19.8917
  
  solvation energy not yet converged... 
  
  end of program sole
   
 Time(sole)  user:        0.2  user+sys:        0.2  wallclock:        0.0
  
  start of program ch
  
  gridpoints used for charge fit         2952
    out of a possible maximum of         2952
  
   Electrostatic potential fitting constrained to reproduce
     total charge:                yes
     dipole moment:               no 
     traceless quadrupole moment: no 
     traceless octupole moment:   no 
  
  Atomic charges from electrostatic potential: 
   
 Atom       O1           O2           O3           N4           N5      
 Charge   -0.64076     -0.67283     -0.33338     -0.47496     -0.51133
   
 Atom       N6           N7           C8           C9           C10     
 Charge    0.30659     -0.07021     -0.49351      0.72929      0.30042
   
 Atom       C11          H12          H13          H14          H15     
 Charge    0.74600      0.10958      0.37019      0.41897      0.21594
  
  sum of atomic charges:     0.000000
   
 RMS Error   1.46E-03 hartrees
 
  end of program ch
   
 Time(ch)  user:        2.9  user+sys:        2.9  wallclock:        1.5
  
  start of program post
  
  Writing input files for PBF
  end of program post
   
 Time(post)  user:        1.6  user+sys:        1.6  wallclock:        0.9

  start of program pbf

Pbf Version 4.10

Molecular surface area:      159.79307   [A2]
Reaction field energy:       -45.69418   [kT]

Solvent-accessible surface area:  328.37214 [A2]
Cavity energy:                      4.53887 [kT]

  Peak memory usage: 480 Mb

  end of program pbf

 Time(pbf)  user:        0.1  user+sys:        0.2  wallclock:        0.2
  
  start of program solv
  
   number of surface charges from PBF    1824
   sum of surface charges      0.00019
   
  nuclear repulsion energy.......     591.894355148 hartrees
  end of program solv
   
 Time(solv)  user:        1.0  user+sys:        1.0  wallclock:        0.3
  
  start of program scf
  
 Energy computed with NOPS off.
 Convergence Criterion:
    Energy (econv):       1.00E-05
    RMS density (dconv):  5.00E-06
  
       i  u  d  i  g                   
       t  p  i  c  r                                 RMS    maximum
       e  d  i  u  i                       energy  density   DIIS  
       r  t  s  t  d       total energy    change  change    error 
  
etot    1  N  N  2  U    -599.53399448929           2.4E-06  6.4E-05
etot    2  N  N  2  U    -599.53399397973 -5.1E-07  0.0E+00  0.0E+00
  
  
 Energy components, in hartrees:
   (A)  Total zero-electron terms....     590.88176787255
   (B)    Nuclear-nuclear............     591.89435514816
   (C)    Nuclear-solvent............      -1.01258727561
   (E)  Total one-electron terms.....   -1988.37126461120
   (F)    Electron-nuclear...........   -2585.05314999037
   (G)    Electron-solvent...........       0.92767547221
   (H)    Kinetic....................     595.75420990696
   (I)  Total two-electron terms.....     797.95550275892
   (J)    Coulomb....................     874.28128437778
   (K)    Exchange+Correlation.......     -76.32578161886
   (L)  Electronic energy............   -1190.41576185228  (E+I)
   (N)  Total quantum mech. energy...    -599.53399397973  (A+L)
   (O)  Gas phase energy.............    -599.45762081134
   (P)  Solution phase energy........    -599.48948573910  (Q+R+S+T)
   (Q)    Total solute energy........    -599.44908217632  (N-C-G)
   (R)    Total solvent energy.......      -0.04245590170  (C/2+G/2)
   (S)    Solute cavity energy.......       0.00428338096
   (T)    First shell corr. factor...      -0.00223104203
   (U)  Reorganization energy........       0.00853863501  (Q-O)
   (V)  Solvation energy.............      -0.03186492776  (P-O)
  
 SCFE:  Solution phase energy: DFT(m06-2x)       -599.48948573910 hartrees
        SCF iterations:   2
  
 
 HOMO energy:    -0.28933
 LUMO energy:    -0.04932
 
  Orbital energies (hartrees): 
   -19.67200   -19.64096   -19.63537   -14.91399   -14.84343   -14.82695
   -14.82439   -10.72176   -10.69946   -10.63196   -10.62093    -1.30264
    -1.22664    -1.20500    -1.11204    -1.09444    -1.05210    -0.91377
    -0.82661    -0.77419    -0.76757    -0.70309    -0.66148    -0.61518
    -0.60472    -0.59823    -0.58785    -0.58381    -0.56705    -0.55085
    -0.52031    -0.51468    -0.50211    -0.46086    -0.40709    -0.40604
    -0.38369    -0.38040    -0.34035    -0.28933    -0.04932    -0.00906
    -0.00555     0.00630     0.01013     0.02235     0.02762     0.03388
     0.03823     0.05117
 
  end of program scf
   
 Time(scf)  user:       17.6  user+sys:       17.6  wallclock:        5.0
  
  start of program sole
  
    SCRF                   solvation energy
  iteration          Hartrees            kcal/mol
     0               0.0000000            0.0000
     1              -0.0246742          -15.4833
     2              -0.0302157          -18.9606
     3              -0.0314413          -19.7297
     4              -0.0316995          -19.8917
     5              -0.0318649          -19.9955
  
  solvation energy not yet converged... 
  
  end of program sole
   
 Time(sole)  user:        0.2  user+sys:        0.2  wallclock:        0.1
  
  start of program ch
  
  gridpoints used for charge fit         2952
    out of a possible maximum of         2952
  
   Electrostatic potential fitting constrained to reproduce
     total charge:                yes
     dipole moment:               no 
     traceless quadrupole moment: no 
     traceless octupole moment:   no 
  
  Atomic charges from electrostatic potential: 
   
 Atom       O1           O2           O3           N4           N5      
 Charge   -0.64049     -0.67226     -0.33349     -0.47515     -0.51196
   
 Atom       N6           N7           C8           C9           C10     
 Charge    0.30707     -0.07029     -0.49287      0.72971      0.29839
   
 Atom       C11          H12          H13          H14          H15     
 Charge    0.74566      0.11018      0.37025      0.41937      0.21590
  
  sum of atomic charges:    -0.000000
   
 RMS Error   1.46E-03 hartrees
 
  end of program ch
   
 Time(ch)  user:        2.9  user+sys:        2.9  wallclock:        1.6
  
  start of program post
  
  Writing input files for PBF
  end of program post
   
 Time(post)  user:        1.6  user+sys:        1.6  wallclock:        1.0

  start of program pbf

Pbf Version 4.10

Molecular surface area:      159.79307   [A2]
Reaction field energy:       -45.64029   [kT]

Solvent-accessible surface area:  328.37214 [A2]
Cavity energy:                      4.53887 [kT]

  Peak memory usage: 480 Mb

  end of program pbf

 Time(pbf)  user:        0.2  user+sys:        0.2  wallclock:        0.2
  
  start of program solv
  
   number of surface charges from PBF    1824
   sum of surface charges      0.00019
   
  nuclear repulsion energy.......     591.894355148 hartrees
  end of program solv
   
 Time(solv)  user:        0.9  user+sys:        0.9  wallclock:        0.3
  
  start of program scf
  
 Energy computed with NOPS off.
 Convergence Criterion:
    Energy (econv):       1.00E-05
    RMS density (dconv):  5.00E-06
  
       i  u  d  i  g                   
       t  p  i  c  r                                 RMS    maximum
       e  d  i  u  i                       energy  density   DIIS  
       r  t  s  t  d       total energy    change  change    error 
  
etot    1  N  N  2  U    -599.53394696678           3.3E-06  8.2E-05
etot    2  N  N  2  U    -599.53394536872 -1.6E-06  0.0E+00  0.0E+00
  
  
 Energy components, in hartrees:
   (A)  Total zero-electron terms....     590.88226310655
   (B)    Nuclear-nuclear............     591.89435514816
   (C)    Nuclear-solvent............      -1.01209204162
   (E)  Total one-electron terms.....   -1988.37185875752
   (F)    Electron-nuclear...........   -2585.06168851913
   (G)    Electron-solvent...........       0.92706107280
   (H)    Kinetic....................     595.76276868882
   (I)  Total two-electron terms.....     797.95565028225
   (J)    Coulomb....................     874.28261151132
   (K)    Exchange+Correlation.......     -76.32696122907
   (L)  Electronic energy............   -1190.41620847526  (E+I)
   (N)  Total quantum mech. energy...    -599.53394536872  (A+L)
   (O)  Gas phase energy.............    -599.45762081134
   (P)  Solution phase energy........    -599.48937754538  (Q+R+S+T)
   (Q)    Total solute energy........    -599.44891439990  (N-C-G)
   (R)    Total solvent energy.......      -0.04251548441  (C/2+G/2)
   (S)    Solute cavity energy.......       0.00428338096
   (T)    First shell corr. factor...      -0.00223104203
   (U)  Reorganization energy........       0.00870641144  (Q-O)
   (V)  Solvation energy.............      -0.03175673404  (P-O)
  
 SCFE:  Solution phase energy: DFT(m06-2x)       -599.48937754538 hartrees
        SCF iterations:   2
  
 
 HOMO energy:    -0.28958
 LUMO energy:    -0.04953
 
  Orbital energies (hartrees): 
   -19.67165   -19.63822   -19.63376   -14.91400   -14.84282   -14.82948
   -14.82468   -10.72243   -10.69925   -10.63411   -10.62072    -1.30248
    -1.22646    -1.20414    -1.11248    -1.09440    -1.05260    -0.91408
    -0.82688    -0.77430    -0.76802    -0.70337    -0.66164    -0.61520
    -0.60502    -0.59860    -0.58798    -0.58337    -0.56705    -0.55058
    -0.52029    -0.51429    -0.50210    -0.46130    -0.40667    -0.40610
    -0.38289    -0.38011    -0.34023    -0.28958    -0.04953    -0.00900
    -0.00559     0.00628     0.01014     0.02227     0.02760     0.03369
     0.03827     0.05108
 
  end of program scf
   
 Time(scf)  user:       18.2  user+sys:       18.2  wallclock:        5.2
  
  start of program sole
  
    SCRF                   solvation energy
  iteration          Hartrees            kcal/mol
     0               0.0000000            0.0000
     1              -0.0246742          -15.4833
     2              -0.0302157          -18.9606
     3              -0.0314413          -19.7297
     4              -0.0316995          -19.8917
     5              -0.0318649          -19.9955
     6              -0.0317567          -19.9277
  
  stopping: solvation energy converged
  
  iterations:   6    sfinal:    -19.9277 kcal/mol
  
  end of program sole
   
 Time(sole)  user:        0.2  user+sys:        0.2  wallclock:        0.1
  
  start of program cutabab2
  
  end of program cutabab2
   
 Time(cutabab2)  user:        2.2  user+sys:        2.2  wallclock:        0.7
  
  start of program der2a
  
  end of program der2a
   
 Time(der2a)  user:       50.5  user+sys:       50.5  wallclock:       12.8
  
  start of program der2b
  
  end of program der2b
   
 Time(der2b)  user:     4113.2  user+sys:     4113.2  wallclock:     1048.7
  
  start of program der2nda
  
 
  end of program der2nda
   
 Time(der2nda)  user:       63.7  user+sys:       63.7  wallclock:       16.4
  
  start of program der2ndb
  
  end of program der2ndb
   
 Time(der2ndb)  user:    14090.6  user+sys:    14090.6  wallclock:     3865.2
  
  start of program rwr
  
  end of program rwr
   
 Time(rwr)  user:        3.2  user+sys:        3.2  wallclock:        0.9
  
  start of program cphfa
  
       3  vectors produced in CPHF
  
     v    i  j  k  i  g
     e    t  c  c  c  r
     c    e  o  o  u  i
     t    r  r  r  t  d       RMS  
  
     1    1  0  0  6  M     1.3E-02
     1    2  0  0  6  M     1.2E-03
     1    3  0  0  6  M     4.5E-04
     1    4  0  0  6  M     2.0E-04
     1    5  0  0  6  M     5.8E-05
     1    6  0  0  6  M     2.1E-05
  
     v    i  j  k  i  g
     e    t  c  c  c  r
     c    e  o  o  u  i
     t    r  r  r  t  d       RMS  
  
     2    1  0  0  6  M     1.1E-02
     2    2  0  0  6  M     1.0E-03
     2    3  0  0  6  M     3.4E-04
     2    4  0  0  6  M     1.5E-04
     2    5  0  0  6  M     5.6E-05
     2    6  0  0  6  M     2.4E-05
  
     v    i  j  k  i  g
     e    t  c  c  c  r
     c    e  o  o  u  i
     t    r  r  r  t  d       RMS  
  
     3    1  0  0  6  M     8.8E-03
     3    2  0  0  6  M     3.2E-04
     3    3  0  0  6  M     9.1E-05
     3    4  0  0  6  M     3.3E-05
  
  
  Atomic Polar Tensors (au): Total
  =========================
  
  APT for atom O1      
  --------------------------------------
       -1.0028       0.6137       0.0002
        0.5477      -1.4629      -0.0003
        0.0002       0.0002      -0.4293
  --------------------------------------
  
  APT for atom O2      
  --------------------------------------
       -1.0641      -0.8684       0.0010
       -0.7852      -1.8044       0.0019
        0.0017       0.0031      -0.4573
  --------------------------------------
  
  APT for atom O3      
  --------------------------------------
       -0.8904      -0.5537      -0.0040
       -1.3866      -1.6102      -0.0070
        0.0028       0.0035      -0.2504
  --------------------------------------
  
  APT for atom N4      
  --------------------------------------
       -0.4372      -0.1055       0.0001
       -0.1094      -1.4182       0.0009
       -0.0004       0.0006      -0.2788
  --------------------------------------
  
  APT for atom N5      
  --------------------------------------
       -1.0914      -1.1604       0.0012
       -0.0299      -1.1550      -0.0008
        0.0020       0.0032      -0.2421
  --------------------------------------
  
  APT for atom N6      
  --------------------------------------
       -1.4611      -1.4771      -0.0060
        0.1042      -0.2113       0.0012
       -0.0173      -0.0163      -0.1292
  --------------------------------------
  
  APT for atom N7      
  --------------------------------------
        1.8011       1.5634       0.0124
        1.1522       1.0784       0.0057
        0.0118       0.0092      -0.0273
  --------------------------------------
  
  APT for atom C8      
  --------------------------------------
       -0.2989       1.1226       0.0004
        0.5084       0.2218       0.0007
        0.0023       0.0009      -0.0077
  --------------------------------------
  
  APT for atom C9      
  --------------------------------------
        1.4593      -0.5819      -0.0017
       -0.4233       1.8901      -0.0009
       -0.0008      -0.0015       0.3370
  --------------------------------------
  
  APT for atom C10     
  --------------------------------------
        0.2240       0.4235      -0.0008
       -0.0407       1.2794       0.0006
       -0.0001      -0.0001       0.0440
  --------------------------------------
  
  APT for atom C11     
  --------------------------------------
        1.7899       1.1742      -0.0023
        0.6201       2.2232      -0.0021
       -0.0041      -0.0045       0.3950
  --------------------------------------
  
  APT for atom H12     
  --------------------------------------
        0.1232      -0.0563       0.0003
       -0.0168       0.1103       0.0002
        0.0006       0.0000       0.1531
  --------------------------------------
  
  APT for atom H13     
  --------------------------------------
        0.3899       0.0169      -0.0002
       -0.0101       0.1468       0.0001
       -0.0004       0.0005       0.2918
  --------------------------------------
  
  APT for atom H14     
  --------------------------------------
        0.2251      -0.1865       0.0001
       -0.1205       0.3963       0.0003
        0.0006       0.0005       0.3036
  --------------------------------------
  
  APT for atom H15     
  --------------------------------------
        0.2093      -0.0509      -0.0011
       -0.1143       0.1972      -0.0009
        0.0004       0.0004       0.2976
  --------------------------------------
  
  end of program cphfa
   
 Time(cphfa)  user:     6140.9  user+sys:     6140.9  wallclock:     1538.5
  
  start of program freq
  
  All frequencies are shown scaled by:  0.9500
  Thermochemical calculations use scaled frequencies.
   
  Number of frequencies:  39
  harmonic frequencies in cm**-1, reduced masses in amu,
  force constants in mDyne/A, and
  normal modes in cartesian coordinates:          39
  IR intensities in km/mol
  
  vibration #            1        2        3        4        5        6
                  -------- -------- -------- -------- -------- --------
  frequencies        99.31   144.16   161.73   181.74   193.23   309.41
  intensities        13.67     6.12     8.17     0.16    11.62     5.99
  reduc. mass         1.57     1.81     3.00     2.11     2.72     2.92
  force const         0.01     0.02     0.05     0.04     0.06     0.16
    O1       X    -0.00022 -0.00105 -0.10197  0.00174 -0.00168 -0.10895
    O1       Y     0.00008 -0.00013 -0.01040 -0.00010 -0.00012 -0.07250
    O1       Z    -0.03882  0.05157 -0.00205 -0.11414 -0.06301 -0.00002
    O2       X     0.00055  0.00050  0.07408 -0.00166  0.00101 -0.05170
    O2       Y     0.00017 -0.00022 -0.01895  0.00023 -0.00029 -0.03087
    O2       Z     0.10106 -0.09896  0.00172 -0.02691 -0.10278  0.00046
    O3       X    -0.00014  0.00146  0.10350 -0.00107  0.00082  0.07475
    O3       Y    -0.00075 -0.00130 -0.11065  0.00234 -0.00167  0.08495
    O3       Z     0.09733 -0.06558 -0.00297 -0.10021  0.08602  0.00116
    N4       X     0.00023 -0.00001 -0.00953  0.00028  0.00024 -0.00402
    N4       Y     0.00015 -0.00011 -0.01197  0.00013  0.00002 -0.03091
    N4       Z     0.05477  0.03367 -0.00086  0.10828  0.15518 -0.00034
    N5       X     0.00009  0.00052  0.02959 -0.00083  0.00056 -0.03597
    N5       Y     0.00020  0.00044  0.05150 -0.00113  0.00092 -0.01516
    N5       Z    -0.06797  0.07319 -0.00189 -0.07492  0.04536 -0.00073
    N6       X     0.00060  0.00082 -0.01929  0.00014 -0.00029  0.08655
    N6       Y    -0.00021 -0.00026  0.03970 -0.00072  0.00074  0.02149
    N6       Z    -0.07809 -0.11343  0.00463  0.10913 -0.06324 -0.00154
    N7       X    -0.00120 -0.00189 -0.00947  0.00018  0.00046  0.11080
    N7       Y    -0.00033  0.00047 -0.06666  0.00218 -0.00191  0.06890
    N7       Z     0.09015  0.12766  0.00164  0.07512 -0.10381 -0.00026
    C8       X    -0.00014 -0.00053 -0.05422  0.00114 -0.00088  0.01586
    C8       Y     0.00020  0.00050  0.05627 -0.00114  0.00092  0.02703
    C8       Z    -0.07759 -0.00875  0.00167  0.07515 -0.02096  0.00089
    C9       X    -0.00002 -0.00044 -0.05511  0.00099 -0.00079 -0.01359
    C9       Y     0.00023  0.00031  0.01711 -0.00052  0.00034 -0.01174
    C9       Z    -0.02196  0.03802 -0.00046  0.01557  0.00928  0.00033
    C10      X    -0.00021 -0.00022 -0.01869  0.00029 -0.00023 -0.03526
    C10      Y     0.00021  0.00062  0.07424 -0.00151  0.00126 -0.00618
    C10      Z    -0.11763  0.01655 -0.00049 -0.01072  0.02965  0.00037
    C11      X     0.00027  0.00025  0.03194 -0.00074  0.00062 -0.03955
    C11      Y     0.00020  0.00009  0.00651 -0.00027  0.00019 -0.03553
    C11      Z     0.03400 -0.00358 -0.00009  0.00364  0.02308 -0.00017
    H12      X    -0.00045 -0.00028 -0.01497  0.00007 -0.00016 -0.03692
    H12      Y     0.00032  0.00108  0.11703 -0.00227  0.00188 -0.03307
    H12      Z    -0.18137 -0.01119 -0.00083 -0.05095  0.03712 -0.00008
    H13      X     0.00041 -0.00007 -0.01006  0.00029  0.00026 -0.00378
    H13      Y     0.00015 -0.00044 -0.04454  0.00080 -0.00046  0.00027
    H13      Z     0.13630  0.01035 -0.00137  0.11263  0.16927 -0.00068
    H14      X     0.00001  0.00071  0.06040 -0.00168  0.00086 -0.01605
    H14      Y     0.00023  0.00055  0.06728 -0.00137  0.00119 -0.00503
    H14      Z    -0.10841  0.06092 -0.00286 -0.19807 -0.03818 -0.00052
    H15      X     0.00202  0.00429  0.03018  0.00039 -0.00139  0.09775
    H15      Y    -0.00009 -0.00069  0.07112 -0.00184  0.00165  0.02908
    H15      Z    -0.18090 -0.45283  0.00097 -0.05450  0.14343 -0.00140
  
  vibration #            7        8        9       10       11       12
                  -------- -------- -------- -------- -------- --------
  frequencies       359.24   390.31   394.82   423.47   518.48   537.75
  intensities         2.04     9.62    26.47    14.07    15.12    61.38
  reduc. mass         2.87     2.55     4.32     2.45     1.94     0.79
  force const         0.22     0.23     0.40     0.26     0.31     0.14
    O1       X    -0.00041  0.00320 -0.08728 -0.07877  0.00483 -0.00015
    O1       Y    -0.00083  0.00403 -0.06546  0.04344  0.11884 -0.00006
    O1       Z    -0.00780 -0.04758 -0.00185  0.00071 -0.00001 -0.02015
    O2       X    -0.00118  0.00602 -0.10621  0.07281 -0.04785  0.00022
    O2       Y     0.00034 -0.00536  0.13235  0.02124 -0.04567  0.00009
    O2       Z    -0.03985  0.00427  0.00052 -0.00029  0.00009 -0.00719
    O3       X     0.00023 -0.00081 -0.02206 -0.10243  0.01132  0.00011
    O3       Y     0.00074  0.00077 -0.02357  0.01683  0.00802  0.00002
    O3       Z    -0.01480  0.02841  0.00111 -0.00114  0.00000  0.00190
    N4       X     0.00024 -0.00414  0.08995 -0.01159  0.08611 -0.00001
    N4       Y    -0.00022  0.00020  0.00759  0.03717 -0.01706  0.00016
    N4       Z    -0.00420 -0.04498 -0.00210  0.00056  0.00001  0.04043
    N5       X     0.00033 -0.00249  0.07192  0.01555  0.04301 -0.00027
    N5       Y    -0.00022  0.00154 -0.03321  0.00116 -0.10273 -0.00014
    N5       Z     0.15063  0.01807  0.00009 -0.00010 -0.00002 -0.05991
    N6       X    -0.00024  0.00196 -0.01832  0.08663 -0.00349 -0.00018
    N6       Y     0.00042 -0.00179 -0.00671 -0.11822  0.01356  0.00007
    N6       Z     0.10077 -0.08045 -0.00370  0.00204  0.00016  0.01208
    N7       X     0.00106  0.00183 -0.02882  0.07707  0.00077  0.00002
    N7       Y     0.00040 -0.00032 -0.01897 -0.05557  0.01079  0.00005
    N7       Z     0.00753 -0.03118 -0.00151  0.00081  0.00008 -0.00243
    C8       X     0.00031 -0.00128  0.01448 -0.02825 -0.05283  0.00010
    C8       Y     0.00007  0.00003 -0.00970 -0.02975  0.02600 -0.00013
    C8       Z    -0.07211  0.18763  0.00866 -0.00258 -0.00021  0.00693
    C9       X     0.00020 -0.00121  0.01367 -0.04686 -0.02896  0.00002
    C9       Y    -0.00040  0.00130 -0.00668  0.05791  0.08459  0.00002
    C9       Z    -0.00856  0.10463  0.00470 -0.00159 -0.00035  0.03859
    C10      X    -0.00017 -0.00257  0.04642 -0.01202 -0.08424  0.00006
    C10      Y    -0.00025  0.00014 -0.00226 -0.01658 -0.00507 -0.00022
    C10      Z    -0.15879 -0.06122 -0.00212  0.00065  0.00006 -0.04072
    C11      X    -0.00009 -0.00193  0.06186  0.02645  0.04800 -0.00002
    C11      Y    -0.00016 -0.00032  0.02359  0.04402 -0.09724  0.00021
    C11      Z     0.04706  0.01122  0.00015 -0.00017 -0.00009 -0.02261
    H12      X    -0.00079 -0.00375  0.05005 -0.00767 -0.07753  0.00006
    H12      Y    -0.00082 -0.00015  0.03402  0.02518  0.06887 -0.00034
    H12      Z    -0.30164 -0.34138 -0.01408  0.00440  0.00050 -0.03601
    H13      X     0.00002 -0.00473  0.09052 -0.01270  0.08595 -0.00037
    H13      Y    -0.00005  0.00060 -0.03077 -0.00483 -0.09369 -0.00001
    H13      Z    -0.10045 -0.28397 -0.01284  0.00425  0.00049 -0.11695
    H14      X     0.00002 -0.00353  0.08231 -0.01542  0.13748  0.00158
    H14      Y    -0.00022  0.00123 -0.02859 -0.01477 -0.05783 -0.00068
    H14      Z     0.03176 -0.10678 -0.00511  0.00143  0.00079  0.92231
    H15      X     0.00007  0.00138 -0.02171  0.14953  0.00707  0.00000
    H15      Y     0.00071 -0.00149 -0.00859 -0.07953  0.02147 -0.00003
    H15      Z     0.11466  0.00716  0.00017 -0.00068  0.00054 -0.01649
  
  vibration #           13       14       15       16       17       18
                  -------- -------- -------- -------- -------- --------
  frequencies       600.78   616.56   617.48   625.04   740.05   741.14
  intensities        30.49   107.83    24.40    35.05    36.97     5.62
  reduc. mass         1.37     0.63     1.75     0.85     6.70     2.67
  force const         0.29     0.14     0.39     0.20     2.16     0.87
    O1       X    -0.05828  0.00553 -0.05777 -0.00035  0.00430 -0.06060
    O1       Y     0.03135  0.00270 -0.03221 -0.00003 -0.00452  0.06464
    O1       Z     0.00017 -0.00850 -0.00069 -0.00896  0.01159  0.00049
    O2       X     0.07409 -0.00409  0.04048  0.00052  0.00410 -0.06210
    O2       Y     0.02766  0.00540 -0.05889 -0.00015  0.00565 -0.08105
    O2       Z    -0.00024 -0.00103 -0.00020  0.00313 -0.07187 -0.00487
    O3       X     0.09426  0.00360 -0.04280  0.00015  0.00132 -0.01862
    O3       Y     0.02035  0.00278 -0.03270  0.00027  0.00115 -0.01632
    O3       Z     0.00046 -0.01255 -0.00182  0.05043  0.00181 -0.00004
    N4       X    -0.02780 -0.01059  0.11476  0.00038  0.00317 -0.04662
    N4       Y     0.04801 -0.00626  0.06525  0.00049 -0.00096  0.01227
    N4       Z    -0.00016 -0.06263 -0.00602 -0.02752 -0.06486 -0.00484
    N5       X    -0.00376  0.00692 -0.07374 -0.00023 -0.00281  0.03783
    N5       Y    -0.08715  0.00040  0.00118 -0.00062 -0.00169  0.02495
    N5       Z     0.00033  0.03658  0.00350  0.01144 -0.07402 -0.00537
    N6       X    -0.05544  0.00045 -0.00123 -0.00087 -0.00061  0.00923
    N6       Y     0.00379 -0.00302  0.03041  0.00079 -0.00111  0.01503
    N6       Z    -0.00070 -0.02698 -0.00264  0.08651 -0.00210 -0.00013
    N7       X    -0.03953  0.00427 -0.04391 -0.00070  0.00122 -0.01823
    N7       Y     0.06518  0.00225 -0.02604 -0.00030  0.00087 -0.01236
    N7       Z     0.00003  0.01931  0.00220 -0.09690 -0.00181 -0.00015
    C8       X     0.01489 -0.00562  0.06075  0.00041 -0.00580  0.08258
    C8       Y    -0.08142 -0.00296  0.03682 -0.00031  0.00066 -0.00944
    C8       Z     0.00021  0.06504  0.00621  0.01545  0.01811  0.00075
    C9       X    -0.03128 -0.01034  0.11391  0.00061  0.00153 -0.02293
    C9       Y     0.03407 -0.00634  0.06595  0.00063 -0.00414  0.05813
    C9       Z    -0.00037 -0.01260 -0.00124  0.02409 -0.03929 -0.00134
    C10      X     0.02751  0.00360 -0.04143 -0.00003 -0.01249  0.17887
    C10      Y    -0.11748  0.00380 -0.03403 -0.00096 -0.00032  0.00572
    C10      Z    -0.00032 -0.02724 -0.00243 -0.00356  0.00638  0.00034
    C11      X     0.01388  0.00425 -0.04709 -0.00033  0.00362 -0.04348
    C11      Y     0.05251 -0.00046  0.00265  0.00028  0.00427 -0.05957
    C11      Z    -0.00004 -0.04801 -0.00414 -0.01371  0.24696  0.01752
    H12      X     0.02723  0.00413 -0.05143 -0.00015 -0.01268  0.18017
    H12      Y    -0.13448  0.01244 -0.12598 -0.00138  0.00353 -0.04756
    H12      Z    -0.00072 -0.12209 -0.01152 -0.02346 -0.02214 -0.00293
    H13      X    -0.02941 -0.00899  0.12022  0.00097  0.00377 -0.04928
    H13      Y     0.01229 -0.02012  0.22605  0.00143 -0.00280  0.04055
    H13      Z     0.00302  0.84839  0.07643  0.22179  0.11158  0.00853
    H14      X    -0.11775  0.00898 -0.08706 -0.00096 -0.00170  0.02688
    H14      Y    -0.14800  0.00123 -0.00503 -0.00100 -0.00129  0.01872
    H14      Z    -0.00078  0.15288  0.01387 -0.00297  0.07446  0.00488
    H15      X    -0.16681 -0.00200  0.00288  0.00696 -0.00054  0.00860
    H15      Y    -0.06545 -0.00295  0.03551 -0.00102 -0.00123  0.01532
    H15      Z     0.00540  0.21205  0.02446 -0.80089 -0.01794 -0.00028
  
  vibration #           19       20       21       22       23       24
                  -------- -------- -------- -------- -------- --------
  frequencies       763.24   874.21   904.12   932.07  1041.13  1114.15
  intensities        37.01     2.16    16.06    61.16   552.79   106.68
  reduc. mass         5.26     2.24     1.25     1.71     3.17     0.67
  force const         1.81     1.01     0.60     0.88     2.03     0.49
    O1       X     0.00019 -0.00871  0.00002 -0.00875 -0.00907  0.01866
    O1       Y    -0.00031  0.01046  0.00032  0.05263  0.00655 -0.00377
    O1       Z    -0.06330 -0.00013  0.00667 -0.00006 -0.00001 -0.00008
    O2       X     0.00040 -0.02619  0.00006  0.00726 -0.00135  0.00613
    O2       Y     0.00056 -0.03248  0.00019  0.03563  0.01630 -0.01458
    O2       Z    -0.00403  0.00007  0.00274 -0.00005 -0.00001  0.00001
    O3       X    -0.00003  0.06454  0.00007 -0.01383  0.03580  0.01736
    O3       Y     0.00007  0.02853  0.00006 -0.01116  0.02071  0.02533
    O3       Z    -0.00635  0.00061 -0.00089 -0.00008  0.00011 -0.00002
    N4       X    -0.00009  0.08360  0.00085  0.06655 -0.03274  0.07920
    N4       Y    -0.00016  0.01113 -0.00048 -0.10314 -0.07163 -0.00514
    N4       Z    -0.06664 -0.00028  0.00585 -0.00012  0.00014 -0.00020
    N5       X    -0.00017 -0.02155 -0.00109 -0.11893  0.04140 -0.04506
    N5       Y    -0.00054  0.11287  0.00059  0.06512  0.04199 -0.03306
    N5       Z    -0.01497  0.00006 -0.01833  0.00041 -0.00013  0.00018
    N6       X    -0.00009 -0.05269 -0.00072 -0.00145  0.12506  0.05791
    N6       Y     0.00021 -0.14090 -0.00017  0.02675 -0.03450  0.01229
    N6       Z     0.00529  0.00028  0.01339 -0.00021  0.00128  0.00021
    N7       X     0.00039 -0.00555  0.00067  0.01092 -0.16741 -0.06245
    N7       Y     0.00000  0.04304  0.00003 -0.00509  0.01003 -0.00711
    N7       Z     0.01057 -0.00044  0.00101  0.00015 -0.00163 -0.00049
    C8       X    -0.00052 -0.04783 -0.00005  0.05181  0.03026 -0.10460
    C8       Y     0.00013 -0.06506 -0.00013  0.00244 -0.00930 -0.02818
    C8       Z    -0.12675 -0.00047 -0.05379  0.00051 -0.00041  0.00011
    C9       X     0.00038  0.01092 -0.00057 -0.06542  0.04332 -0.04305
    C9       Y    -0.00008  0.01007 -0.00016 -0.00333  0.04531 -0.02558
    C9       Z     0.22811  0.00052 -0.02245  0.00024 -0.00008  0.00019
    C10      X    -0.00096  0.01133  0.00064  0.02717 -0.05537  0.08895
    C10      Y    -0.00022  0.03324  0.00004 -0.02905 -0.03826  0.02276
    C10      Z     0.03420 -0.00046  0.14403 -0.00111  0.00048 -0.00019
    C11      X     0.00041 -0.01143  0.00054  0.06680 -0.02769 -0.04422
    C11      Y     0.00035 -0.02107 -0.00008 -0.00057  0.01635  0.03206
    C11      Z     0.02006  0.00002 -0.01379 -0.00009 -0.00001  0.00006
    H12      X    -0.00082  0.01496 -0.00371 -0.00384 -0.05348  0.13078
    H12      Y    -0.00025  0.08532 -0.00278 -0.32909 -0.01709  0.34643
    H12      Z     0.07888  0.00282 -0.83200  0.00574 -0.00252 -0.00090
    H13      X     0.00031  0.08763  0.00082  0.06655 -0.03631  0.08426
    H13      Y    -0.00073  0.06429 -0.00200 -0.37356 -0.15578  0.02356
    H13      Z     0.10761 -0.00007 -0.01279  0.00039  0.00014 -0.00008
    H14      X    -0.00029  0.03714 -0.00131 -0.18451  0.13868 -0.36076
    H14      Y    -0.00055  0.14931  0.00046  0.03871  0.09368 -0.19973
    H14      Z    -0.05581  0.00004  0.03393 -0.00006  0.00018  0.00064
    H15      X    -0.00025 -0.22223 -0.00075  0.00368  0.12939  0.29174
    H15      Y     0.00083 -0.25544 -0.00029  0.03102 -0.02823  0.16492
    H15      Z     0.09807 -0.00166  0.00553 -0.00088  0.00547  0.00400
  
  vibration #           25       26       27       28       29       30
                  -------- -------- -------- -------- -------- --------
  frequencies      1122.96  1171.83  1309.65  1346.98  1357.83  1403.73
  intensities        67.71   279.86    19.01    69.59    88.11    49.29
  reduc. mass         1.81     0.73     1.10     0.79     1.41     0.97
  force const         1.35     0.59     1.11     0.85     1.53     1.13
    O1       X     0.01035 -0.01028 -0.00851 -0.01649 -0.01907  0.00772
    O1       Y    -0.01380  0.00071 -0.00100  0.06465  0.01207 -0.01411
    O1       Z    -0.00001  0.00003  0.00002 -0.00002  0.00001  0.00000
    O2       X    -0.00234  0.00863 -0.00682  0.02336 -0.01262 -0.04109
    O2       Y     0.00010  0.00843 -0.00253  0.03645  0.02964 -0.05281
    O2       Z     0.00001 -0.00002  0.00001 -0.00007  0.00002  0.00013
    O3       X     0.01458 -0.00320 -0.01668 -0.01858  0.00805 -0.02384
    O3       Y     0.00325 -0.02173 -0.01706 -0.02686  0.01295 -0.03937
    O3       Z     0.00011  0.00013 -0.00012 -0.00005  0.00001 -0.00003
    N4       X    -0.01094 -0.03110 -0.00852  0.04070 -0.06970  0.00443
    N4       Y     0.11335 -0.04624  0.04142 -0.09291 -0.06679  0.05435
    N4       Z    -0.00007  0.00011 -0.00002 -0.00002  0.00020 -0.00005
    N5       X    -0.06538 -0.04518 -0.04841  0.02026 -0.01379  0.09058
    N5       Y    -0.02722 -0.06942  0.04849  0.00847  0.03905  0.07529
    N5       Z     0.00021  0.00017  0.00012 -0.00004  0.00002 -0.00024
    N6       X     0.06862 -0.00207  0.00122  0.04211 -0.02654  0.07053
    N6       Y    -0.03105 -0.05265  0.07077  0.03701 -0.01074  0.05665
    N6       Z     0.00070  0.00039 -0.00022  0.00028 -0.00018  0.00046
    N7       X    -0.07830 -0.00021  0.02047  0.00770 -0.00044  0.00664
    N7       Y     0.00953  0.01969  0.00427  0.01142 -0.00478  0.02503
    N7       Z    -0.00086 -0.00024  0.00027 -0.00002  0.00007 -0.00013
    C8       X     0.06460  0.10256  0.05381  0.04323 -0.03483 -0.02917
    C8       Y     0.01933  0.06462 -0.13320 -0.00112 -0.01705 -0.01289
    C8       Z    -0.00022 -0.00038 -0.00003 -0.00021  0.00011 -0.00014
    C9       X    -0.09575  0.04221  0.00118 -0.06454  0.09777 -0.01820
    C9       Y    -0.07163  0.03874  0.00406 -0.08245  0.04905 -0.01347
    C9       Z     0.00031 -0.00014  0.00000  0.00022 -0.00019  0.00004
    C10      X    -0.01131 -0.00420 -0.03964 -0.02028 -0.00495 -0.04550
    C10      Y     0.06715  0.08309 -0.06741 -0.03310 -0.01051 -0.04328
    C10      Z    -0.00006  0.00004  0.00013  0.00009  0.00002  0.00017
    C11      X     0.11377  0.00185  0.04666 -0.05962  0.12501  0.03940
    C11      Y    -0.08063  0.01822 -0.03140  0.00683 -0.08008  0.01558
    C11      Z    -0.00021 -0.00001 -0.00008  0.00012 -0.00025 -0.00012
    H12      X    -0.03260  0.03311  0.02268 -0.00010 -0.00426 -0.05226
    H12      Y    -0.09558  0.46547  0.59615  0.16325  0.02720 -0.04724
    H12      Z    -0.00002 -0.00046 -0.00080 -0.00036  0.00007 -0.00013
    H13      X    -0.01030 -0.03480 -0.01146  0.05295 -0.06572  0.00040
    H13      Y     0.20061 -0.22431 -0.14151  0.59046  0.43560 -0.14980
    H13      Z    -0.00013  0.00016  0.00013 -0.00053 -0.00032  0.00014
    H14      X     0.02721 -0.24047  0.18032  0.04884 -0.35439 -0.47537
    H14      Y     0.01993 -0.17484  0.17601  0.02476 -0.13672 -0.21862
    H14      Z    -0.00015  0.00042 -0.00033 -0.00001  0.00070  0.00110
    H15      X     0.00254 -0.28635  0.06742 -0.24907  0.15410 -0.32000
    H15      Y    -0.07299 -0.24002  0.12028 -0.14774  0.10579 -0.18964
    H15      Z     0.00111 -0.00242  0.00000 -0.00220  0.00120 -0.00264
  
  vibration #           31       32       33       34       35       36
                  -------- -------- -------- -------- -------- --------
  frequencies      1464.77  1481.84  1611.28  1658.22  1708.90  3070.21
  intensities       165.56   398.21    37.09   802.13  1008.72    15.49
  reduc. mass         1.72     2.36     4.05     5.76     5.64     0.93
  force const         2.17     3.06     6.20     9.33     9.70     5.17
    O1       X    -0.00172 -0.00348  0.02062 -0.07067  0.01112 -0.00001
    O1       Y     0.01575 -0.00467 -0.02309  0.11026 -0.01922 -0.00007
    O1       Z    -0.00001  0.00001 -0.00002  0.00002 -0.00000 -0.00000
    O2       X    -0.01472  0.00829 -0.00628  0.00544  0.06582  0.00012
    O2       Y    -0.02451  0.01646 -0.00180  0.00745  0.10752  0.00009
    O2       Z     0.00005 -0.00003  0.00002 -0.00001 -0.00020 -0.00000
    O3       X     0.03650  0.01970  0.00154  0.00149 -0.00204  0.00007
    O3       Y     0.09961  0.10372 -0.00790 -0.00237 -0.00536  0.00024
    O3       Z    -0.00024 -0.00049  0.00010  0.00004  0.00002  0.00000
    N4       X     0.01922 -0.01253 -0.00744 -0.01083  0.00964  0.00006
    N4       Y     0.01093  0.00374  0.01797  0.04202  0.03536 -0.00028
    N4       Z    -0.00004  0.00001  0.00002 -0.00001 -0.00004 -0.00000
    N5       X     0.06528 -0.04199 -0.02107 -0.00252  0.03166 -0.00165
    N5       Y     0.03496 -0.01240  0.02883 -0.00048  0.02945 -0.00044
    N5       Z    -0.00019  0.00013  0.00003  0.00001 -0.00009  0.00001
    N6       X    -0.08109  0.03835 -0.00830  0.00374 -0.00586  0.00094
    N6       Y    -0.03037  0.06758 -0.04297 -0.01201 -0.00177 -0.00021
    N6       Z    -0.00067 -0.00008  0.00009  0.00008 -0.00004  0.00000
    N7       X    -0.01099 -0.00985 -0.00334 -0.00423  0.00515 -0.00034
    N7       Y    -0.11541 -0.15605  0.01699  0.01007  0.00595  0.00000
    N7       Z     0.00068  0.00090 -0.00020 -0.00011  0.00001 -0.00000
    C8       X     0.11833 -0.06501 -0.03830 -0.02836  0.00763 -0.00322
    C8       Y     0.02754 -0.00331  0.18324  0.02912  0.00258  0.00398
    C8       Z     0.00003  0.00008  0.00000 -0.00000  0.00001  0.00001
    C9       X    -0.05386  0.03613 -0.02898  0.13043 -0.01999  0.00005
    C9       Y    -0.04209  0.01375  0.00308 -0.18483  0.02447  0.00041
    C9       Z     0.00013 -0.00005  0.00004 -0.00008  0.00000  0.00000
    C10      X    -0.06263  0.03761  0.04400  0.00331 -0.00301  0.08432
    C10      Y    -0.02579 -0.00697 -0.17645 -0.00723 -0.00577 -0.01159
    C10      Z     0.00019 -0.00012 -0.00000  0.00001  0.00002 -0.00035
    C11      X    -0.01239  0.01401  0.03335 -0.00731 -0.11826 -0.00119
    C11      Y     0.02527 -0.02828 -0.01454 -0.02103 -0.19351 -0.00020
    C11      Z     0.00001 -0.00002 -0.00007  0.00002  0.00036  0.00001
    H12      X    -0.05955  0.04766  0.10859  0.00765 -0.00221 -0.94614
    H12      Y     0.10360  0.00886  0.23638  0.01283  0.00010  0.10049
    H12      Z     0.00033 -0.00017 -0.00043 -0.00005  0.00002  0.00391
    H13      X     0.01881 -0.01398 -0.00845 -0.01847  0.01056 -0.00222
    H13      Y    -0.00032 -0.03497  0.00515 -0.21744 -0.15458 -0.00022
    H13      Z    -0.00000  0.00002  0.00000  0.00025  0.00014  0.00000
    H14      X    -0.22227  0.10378  0.08368 -0.01248 -0.17373  0.00757
    H14      Y    -0.11477  0.06247  0.08600 -0.00963 -0.07205 -0.00274
    H14      Z     0.00048 -0.00018 -0.00020  0.00003  0.00046 -0.00003
    H15      X     0.17562 -0.43601  0.00204  0.05829  0.00478 -0.00116
    H15      Y     0.13716 -0.22454 -0.04089  0.02530  0.00372 -0.00073
    H15      Z     0.00121 -0.00375  0.00016  0.00017  0.00008 -0.00001
  
  vibration #           37       38       39
                  -------- -------- --------
  frequencies      3286.66  3393.63  3427.23
  intensities        86.21   168.32   252.68
  reduc. mass         0.94     0.94     0.94
  force const         5.98     6.37     6.50
    O1       X     0.00038  0.00040 -0.00029
    O1       Y    -0.00043 -0.00041  0.00046
    O1       Z     0.00000  0.00000  0.00000
    O2       X     0.00010  0.00035 -0.00026
    O2       Y     0.00008  0.00044 -0.00067
    O2       Z    -0.00000 -0.00000 -0.00000
    O3       X    -0.00017 -0.00009  0.00014
    O3       Y    -0.00105 -0.00014  0.00026
    O3       Z     0.00000 -0.00000 -0.00000
    N4       X    -0.00012  0.07126 -0.00251
    N4       Y    -0.00031 -0.00126  0.00041
    N4       Z     0.00000 -0.00016  0.00001
    N5       X     0.00004  0.00017  0.03297
    N5       Y     0.00016 -0.00157 -0.06392
    N5       Z    -0.00000 -0.00000 -0.00009
    N6       X     0.03625 -0.00017  0.00033
    N6       Y    -0.06072 -0.00007 -0.00011
    N6       Z     0.00046 -0.00000  0.00000
    N7       X     0.00078  0.00010 -0.00035
    N7       Y     0.00186  0.00008 -0.00020
    N7       Z    -0.00000  0.00000 -0.00000
    C8       X     0.00010 -0.00035 -0.00061
    C8       Y     0.00148 -0.00026  0.00118
    C8       Z    -0.00001  0.00000 -0.00000
    C9       X    -0.00041 -0.00103  0.00068
    C9       Y     0.00043  0.00026 -0.00048
    C9       Z    -0.00000  0.00000 -0.00000
    C10      X     0.00027 -0.00024  0.00066
    C10      Y     0.00092  0.00030  0.00120
    C10      Z     0.00000 -0.00000 -0.00000
    C11      X    -0.00033 -0.00092 -0.00005
    C11      Y     0.00013 -0.00017  0.00098
    C11      Z     0.00000  0.00000 -0.00000
    H12      X     0.00086  0.00184 -0.00589
    H12      Y    -0.00067 -0.00015 -0.00033
    H12      Z    -0.00000 -0.00001  0.00002
    H13      X     0.00140 -0.95941  0.02646
    H13      Y     0.00030  0.01417  0.00065
    H13      Z    -0.00001  0.00218 -0.00006
    H14      X     0.00121 -0.01373 -0.44399
    H14      Y    -0.00164  0.02393  0.84980
    H14      Z    -0.00000  0.00004  0.00130
    H15      X    -0.51736 -0.00072 -0.00104
    H15      Y     0.80917  0.00142  0.00149
    H15      Z    -0.00627 -0.00001 -0.00001
  
  Number of imaginary frequencies:   0
   
  Writing vibrational animation data to 20116_keto_isomer2.vib
  Writing IR vibrational spectrum data to 20116_keto_isomer2_vib.spm
  rotational symmetry number:  1

  rotational temperatures (K):      0.126869      0.031905      0.025494
   
  The Quasi-Harmonic approximation will be applied to compute
  vibrational constributions to thermodynamic properties.
  Frequencies will be adjusted to a minimum value of  100.00 cm^-1.

  vibrational temperatures:
       mode:      1        2        3        4        5        6
  temp. (K):   143.88   207.42   232.70   261.48   278.01   445.18
   
       mode:      7        8        9       10       11       12
  temp. (K):   516.86   561.57   568.05   609.27   745.98   773.70
   
       mode:     13       14       15       16       17       18
  temp. (K):   864.39   887.10   888.41   899.29  1064.76  1066.34
   
       mode:     19       20       21       22       23       24
  temp. (K):  1098.13  1257.80  1300.83  1341.04  1497.96  1603.01
   
       mode:     25       26       27       28       29       30
  temp. (K):  1615.69  1686.01  1884.30  1938.00  1953.61  2019.66
   
       mode:     31       32       33       34       35       36
  temp. (K):  2107.47  2132.04  2318.27  2385.81  2458.72  4417.34
   
       mode:     37       38       39
  temp. (K):  4728.76  4882.67  4931.01
   
   
  Thermodynamic properties calculated assuming an ideal gas

  In the table below, the units for temperature
  are kelvins, the units for U, H, and G are
  kcal/mol and the units for Cv and S are cal/(mol K)

  The zero point energy (ZPE):     60.185 kcal/mol
  is not included in U, H, or G in the table below
  
 
  =============================================================================
  Thermodynamic properties for P = 1.00E+00 atm, calculated at   1 temperatures


  T =   298.15 K, P = 1.00E+00 atm
   
                  U         Cv          S          H          G        ln(Q)
              =========  =========  =========  =========  =========  =========
  trans.          0.889      2.981     41.046      1.481    -10.757   18.15488
  rot.            0.889      2.981     30.222      0.889     -8.122   13.70821
  vib.            4.057     29.027     23.025      4.057     -2.808    4.73878
  elec.           0.000      0.000      0.000      0.000      0.000    0.00000
  ----------------------------------------------------------------------------
  total           5.835     34.989     94.292      6.427    -21.686   36.60186
   
   Total internal energy, Utot(SCFE + ZPE + U):    -599.384169 hartrees
   Total enthalpy, Htot (Utot + nRT), with n=1:    -599.383224 hartrees
    Total Gibbs free energy, Gtot (Htot - T*S):    -599.428026 hartrees
   
  end of program freq
   
 Time(freq)  user:        1.6  user+sys:        1.6  wallclock:        0.9
  
  start of program post
  
  Writing input files for PBF
  end of program post
   
 Time(post)  user:        1.5  user+sys:        1.5  wallclock:        0.8

 Total cpu seconds     user:   24862.571   user+sys:   24862.571
  
 Total elapsed time:    6611 seconds

Job 20116_keto_isomer2 completed on vm-linux2 at Tue Jan 28 17:46:50 2025
