Job 20116_bond_spe_B3LYP-D3_6-311Gppss started on vm-linux1 at Mon May 26 16:39:33 2025
jobid: vm-linux1-0-68346f14

  +--------------------------------------------------------------------+
  |  Jaguar version 11.2, release 117                                  |
  |                                                                    |
  |  Copyright Schrodinger, Inc.                                       |
  |  All Rights Reserved.                                              |
  |                                                                    |
  |  The following have contributed to Jaguar (listed alphabetically): |
  |  Mike Beachy, Art Bochevarov, Dale Braden, Yixiang Cao,            |
  |  Alan Chien, Chris Cortis, Rich Friesner, Bill Goddard,            |
  |  Hod Greeley, Tom Hughes, Leif Jacobson, Jean-Marc Langlois,       |
  |  Daniel Levine, Daniel Mainz, Rob Murphy, Dean Philipp,            |
  |  Tom Pollard, Murco Ringnalda, Mark Watson, Haoyu Yu.              |
  |                                                                    |
  |  Use of this program should be acknowledged in publications as:    |
  |                                                                    |
  |  Jaguar, version 11.2, Schrodinger, Inc., New York, NY, 2021.      |
  |                                                                    |
  |  A. D. Bochevarov, E. Harder, T. F. Hughes, J. R. Greenwood,       |
  |  D. A. Braden, D. M. Philipp, D. Rinaldo, M. D. Halls,             |
  |  J. Zhang, R. A. Friesner, "Jaguar: A High-Performance Quantum     |
  |  Chemistry Software Program with Strengths in Life and Materials   |
  |  Sciences", Int. J. Quantum Chem., 2013, 113(18), 2110-2142.       |
  +--------------------------------------------------------------------+
  
  start of program pre
  
  Job name: 20116_bond_spe_B3LYP-D3_6-311Gppss
  Executables used: /mnt/Data_3/SCHRODINGER_2021-2/jaguar-v11.2/bin/Linux-x86_64
  Temporary files : /mnt/Data_3/SCHRODINGER_2021-2_TMP/vm/20116_bond_spe_B3LYP-D3_6-311Gppss#vm-linux1-0-68346f14
  Maestro file (input):  20116_bond_spe_B3LYP-D3_6-311Gppss.mae
  Maestro file (output): 20116_bond_spe_B3LYP-D3_6-311Gppss.01.mae
  
 Contents of input file: &gen section only
 ----------------Contents start----------------
&gen
isolv=2
basis=6-311G++**
dftname=B3LYP-D3
nogas=0
&
 -----------------Contents end-----------------
 
  basis set:             6-311g++**                      
  net molecular charge:    0
  multiplicity:            1
  
  Using up to   8 threads per process
  
  number of basis functions....          270
  
 Input geometry:
                                   angstroms
  atom               x                 y                 z
  O1           -2.9087380000     -0.3927040000     -0.9678360000 
  O2           -1.2271200000      3.6213340000      0.4021960000 
  O3           -0.6820020000     -2.1626680000      1.3658850000 
  N4           -2.0582770000      1.6021670000     -0.2808510000 
  N5            0.2360270000      1.8754340000      0.2374940000 
  N6           -0.2432210000     -1.6127670000     -0.7559920000 
  N7           -0.3098880000     -2.5260700000      0.1024830000 
  C8           -0.5568190000     -0.2755610000     -0.4580060000 
  C9           -1.9207100000      0.2482720000     -0.5999610000 
  C10           0.4510070000      0.5430770000     -0.0603180000 
  C11          -1.0304640000      2.4397420000      0.1368230000 
  H12           1.4554080000      0.1538020000      0.0329010000 
  H13          -2.9827410000      2.0025290000     -0.3618290000 
  H14           1.0008160000      2.4730020000      0.5384180000 
  H15          -0.7077020000     -2.9201040000      1.9382530000 
   
  principal moments of inertia:
        amu*angstrom^2:      228.15110      637.20315      760.71821
                g*cm^2: 3.78853764E-38 1.05810059E-37 1.26320215E-37
   
  rotational constants:
               cm^(-1):      0.07388800      0.02645566      0.02216015
                   GHz:      2.21510662      0.79312070      0.66434456
   
  Molecular weight:     156.03 amu
   
  Stoichiometry: C4N4H4O3
[running at reduced cpu priority]
  Molecular Point Group: C1      
  Point Group used: C1
  
  nuclear repulsion energy.......     601.815431278 hartrees
 
 Non-default options chosen:
   SCF calculation type: DFT(b3lyp-d3)               
   DFT=Becke_3_Parameter/HF+Slater+Becke88+VWN+LYP (B3LYP-D3)
   Solvation energy will be computed using PBF
   Solvent: water                                                           
   Internal dielectric constant:    1.000
   Continuum dielectric constant:  80.370
   Solvent probe molecule radius:   1.400
  
 Temporary integer options set:
     73=  2
  
  atom       vdw   vdw2    cov     mass  grid  daf  charge   basis
  O1        1.702  1.550  0.730   15.995    Y    Y      Y    6-311++g**
  O2        1.702  1.550  0.730   15.995    Y    Y      Y    6-311++g**
  O3        1.702  1.450  0.730   15.995    Y    Y      Y    6-311++g**
  N4        1.831  1.500  0.750   14.003    Y    Y      Y    6-311++g**
  N5        1.831  1.500  0.750   14.003    Y    Y      Y    6-311++g**
  N6        1.831  1.500  0.750   14.003    Y    Y      Y    6-311++g**
  N7        1.831  1.500  0.750   14.003    Y    Y      Y    6-311++g**
  C8        1.949  2.000  0.770   12.000    Y    Y      Y    6-311++g**
  C9        1.949  2.000  0.770   12.000    Y    Y      Y    6-311++g**
  C10       1.949  2.000  0.770   12.000    Y    Y      Y    6-311++g**
  C11       1.949  2.000  0.770   12.000    Y    Y      Y    6-311++g**
  H12       1.597  1.250  0.320    1.008    Y    Y      Y    6-311++g**
  H13       1.597  1.150  0.320    1.008    Y    Y      Y    6-311++g**
  H14       1.597  1.150  0.320    1.008    Y    Y      Y    6-311++g**
  H15       1.597  1.150  0.320    1.008    Y    Y      Y    6-311++g**
  
  end of program pre
   
 Time(pre)  user:        3.9  user+sys:        3.9  wallclock:        1.0
  
  start of program onee
  
  smallest eigenvalue of S:    5.148E-06
  number of canonical orbitals.....          263
  end of program onee
   
 Time(onee)  user:        0.7  user+sys:        0.7  wallclock:        0.1
  
  start of program hfig
  
  initial wavefunction generated automatically from atomic wavefunctions
 
  Irreducible     Total no   No of occupied orbitals 
  representation  orbitals   Shell_1  Shell_2    ...
  No Symm          263         40
  ------------------------
  Orbital occupation/shell    1.000
 
  end of program hfig
   
 Time(hfig)  user:        1.3  user+sys:        1.3  wallclock:        0.2
  
  start of program probe
  
  end of program probe
   
 Time(probe)  user:        0.4  user+sys:        0.4  wallclock:        0.1
  
  start of program grid
  
   grid     grid set  grid #  grid sym
  ------    --------  ------  --------
  coarse        0        0        1
  medium        2        1        1
  fine          0        0        1
  ultrafine     4        2        1
  charge       -1        3        1
  gradient      4        2        1
  density       0        0        1
  DFT-fine    -11        4        1
  DFT-med.    -10        5        1
  DFT-grad    -12        6        1
  DFT-der2      0        0        1
  DFT-cphf      0        0        1
  LMP2-enrg     4        2        1
  LMP2-grad     2        1        1
  DFT-cphf2     0        0        1
  PBF-dens      0        0        1
  plotting      0        0        1
  Rel-grad    -17        0        1
  
  number of gridpoints: 
     atom        O1       O2       O3       N4       N5       N6       N7
  grid # 1      244      243      196      179      177      210      209
  grid # 2      512      511      418      345      343      434      434
  grid # 3      350      368      131       54       56      159      203
  grid # 4     5282     5282     5282     5282     5282     5282     5282
  grid # 5     2128     2128     2128     2128     2128     2128     2128
  grid # 6     5374     5374     5374     5374     5374     5374     5374
   
  number of gridpoints: 
     atom        C8       C9      C10      C11      H12      H13      H14
  grid # 1      184      181      171      185      155      155      155
  grid # 2      356      354      336      352      321      317      321
  grid # 3       36       45       38       54      386      400      406
  grid # 4     5282     5282     5282     5282     5282     5282     5282
  grid # 5     2128     2128     2128     2128     2128     2128     2128
  grid # 6     5374     5374     5374     5374     5374     5374     5374
   
  number of gridpoints: 
     atom       H15    total
  grid # 1      154     2798
  grid # 2      323     5677
  grid # 3      503     3189
  grid # 4     5282    79230
  grid # 5     2128    31920
  grid # 6     5374    80610
   
  end of program grid
   
 Time(grid)  user:        1.3  user+sys:        1.3  wallclock:        0.2
  
  start of program rwr
  
  end of program rwr
   
 Time(rwr)  user:        3.8  user+sys:        3.8  wallclock:        0.5
  
  start of program scf
  
 number of electrons..........         80
 number of alpha electrons....         40
 number of beta electrons.....         40
 number of orbitals, total....        263
 number of doubly-occ'd orbs..         40
 number of open shell orbs....          0
 number of occupied orbitals..         40
 number of virtual orbitals...        223
 number of hamiltonians.......          1
 number of shells.............          1
 SCF type: DFT=Becke_3_Parameter/HF+Slater+Becke88+VWN+LYP (B3LYP-D3)
 Energy computed with NOPS off.
 Convergence Criterion:
    Energy (econv):       5.00E-05
    RMS density (dconv):  1.00E-04
  
       i  u  d  i  g                   
       t  p  i  c  r                                 RMS    maximum
       e  d  i  u  i                       energy  density   DIIS  
       r  t  s  t  d       total energy    change  change    error 
  
etot    1  N  N  5  M    -597.66777053593           7.9E-03  1.3E-01
etot    2  Y  Y  6  M    -595.41064203177 -2.3E+00  7.1E-03  2.3E-01
etot    3  Y  Y  6  M    -598.57177087785  3.2E+00  3.4E-03  1.4E-01
etot    4  N  Y  2  U    -599.51072661182  9.4E-01  2.2E-03  3.2E-02
etot    5  Y  Y  6  M    -599.54857028032  3.8E-02  1.1E-03  2.8E-02
etot    6  N  Y  2  U    -599.61893777657  7.0E-02  3.3E-04  1.2E-02
etot    7  Y  Y  6  M    -599.62387074594  4.9E-03  1.5E-04  4.6E-03
etot    8  Y  Y  6  M    -599.62509187950  1.2E-03  5.6E-05  1.9E-03
etot    9  N  Y  2  U    -599.62531601188  2.2E-04  2.2E-05  5.8E-04
etot   10  N  N  2  U    -599.62533518580  1.9E-05  0.0E+00  0.0E+00
 
  Computing the dispersion energy correction...
  
  
 Energy components, in hartrees:
   (A)  Nuclear repulsion............     601.81543127812
   (E)  Total one-electron terms.....   -2010.77420768094
   (F)    Electron-nuclear...........   -2608.20682986302
   (H)    Kinetic....................     597.43262218208
   (I)  Total two-electron terms.....     809.33344121702
   (J)    Coulomb....................     885.94672077565
   (K)    Exchange+Correlation.......     -76.61327955863
   (L)  Electronic energy............   -1201.44076646392  (E+I)
   (M)  -V/T.........................       2.00367022644  (-(A+F+I)/H)
   (N0) D3 correction................      -0.01148267832
   (N)  Total energy.................    -599.63681786412  (A+L+N0)
   (O)  Gas phase energy.............    -599.63681786412
  
 SCFE: SCF energy: DFT(b3lyp-d3)      -599.63681786412 hartrees   iterations:  10
  
 
 HOMO energy:    -0.25474
 LUMO energy:    -0.07925
 
  Orbital energies (hartrees): 
   -19.21279   -19.11908   -19.11755   -14.46153   -14.40761   -14.39250
   -14.39141   -10.34431   -10.31608   -10.27081   -10.24694    -1.16927
    -1.09621    -1.06101    -1.01707    -0.99659    -0.95203    -0.84173
    -0.72931    -0.70231    -0.68659    -0.64183    -0.59666    -0.55670
    -0.54932    -0.52358    -0.49971    -0.49767    -0.47706    -0.45291
    -0.43942    -0.42688    -0.40556    -0.37396    -0.34046    -0.31517
    -0.30965    -0.30677    -0.28661    -0.25474    -0.07925    -0.07117
    -0.03057    -0.01881    -0.01787     0.00417     0.02124     0.03428
     0.04272     0.05745
 
  end of program scf
   
 Time(scf)  user:       29.5  user+sys:       29.5  wallclock:        4.5
  
  start of program ch
  
  gridpoints used for charge fit         3032
    out of a possible maximum of         3189
  
   Electrostatic potential fitting constrained to reproduce
     total charge:                yes
     dipole moment:               no 
     traceless quadrupole moment: no 
     traceless octupole moment:   no 
  
  Atomic charges from electrostatic potential: 
   
 Atom       O1           O2           O3           N4           N5      
 Charge   -0.47476     -0.60719     -0.32811     -0.62277     -0.39260
   
 Atom       N6           N7           C8           C9           C10     
 Charge   -0.38510      0.02428      0.37179      0.53625     -0.33683
   
 Atom       C11          H12          H13          H14          H15     
 Charge    0.79980      0.31226      0.38118      0.34168      0.38012
  
  sum of atomic charges:     0.000000
   
 RMS Error   2.48E-03 hartrees
 
  end of program ch
   
 Time(ch)  user:        4.4  user+sys:        4.4  wallclock:        1.4
  
  start of program post
  
  Writing input files for PBF
  end of program post
   
 Time(post)  user:        2.4  user+sys:        2.4  wallclock:        0.9

  start of program pbf

Pbf Version 4.10

Molecular surface area:      146.27336   [A2]
Reaction field energy:       -38.08394   [kT]

Solvent-accessible surface area:  305.65725 [A2]
Cavity energy:                      4.35246 [kT]

  Peak memory usage: 480 Mb

  end of program pbf

 Time(pbf)  user:        0.1  user+sys:        0.2  wallclock:        0.2
  
  start of program solv
  
   number of surface charges from PBF    1860
   sum of surface charges     -0.00003
   
  nuclear repulsion energy.......     601.815431278 hartrees
  end of program solv
   
 Time(solv)  user:        0.7  user+sys:        0.7  wallclock:        0.1
  
  start of program scf
  
 Energy computed with NOPS off.
 Convergence Criterion:
    Energy (econv):       5.00E-05
    RMS density (dconv):  1.00E-04
  
       i  u  d  i  g                   
       t  p  i  c  r                                 RMS    maximum
       e  d  i  u  i                       energy  density   DIIS  
       r  t  s  t  d       total energy    change  change    error 
  
etot    1  N  N  2  U    -599.69466268715           1.1E-03  6.8E-03
etot    2  Y  Y  6  M    -599.69552273265  8.6E-04  2.8E-04  9.2E-03
etot    3  Y  Y  6  M    -599.70151237754  6.0E-03  9.2E-05  2.0E-03
etot    4  N  Y  2  U    -599.70165612315  1.4E-04  4.2E-05  1.2E-03
etot    5  N  N  2  U    -599.70169743784  4.1E-05  0.0E+00  0.0E+00
 
  Computing the dispersion energy correction...
  
  
 Energy components, in hartrees:
   (A)  Total zero-electron terms....     602.14738079633
   (B)    Nuclear-nuclear............     601.81543127812
   (C)    Nuclear-solvent............       0.33194951820
   (E)  Total one-electron terms.....   -2011.29839303656
   (F)    Electron-nuclear...........   -2608.29623447274
   (G)    Electron-solvent...........      -0.41534363881
   (H)    Kinetic....................     597.41318507499
   (I)  Total two-electron terms.....     809.44931480239
   (J)    Coulomb....................     886.07354468251
   (K)    Exchange+Correlation.......     -76.62422988012
   (L)  Electronic energy............   -1201.84907823417  (E+I)
   (N0) D3 correction................      -0.01148267832
   (N)  Total quantum mech. energy...    -599.71318011617  (A+L+N0)
   (O)  Gas phase energy.............    -599.63681786412
   (P)  Solution phase energy........    -599.66737559205  (Q+R+S+T)
   (Q)    Total solute energy........    -599.62978599556  (N-C-G)
   (R)    Total solvent energy.......      -0.04169706030  (C/2+G/2)
   (S)    Solute cavity energy.......       0.00410746381
   (T)    First shell corr. factor...       0.00000000000
   (U)  Reorganization energy........       0.00703186856  (Q-O)
   (V)  Solvation energy.............      -0.03055772793  (P-O)
  
 SCFE:  Solution phase energy: DFT(b3lyp-d3)       -599.66737559205 hartrees
        SCF iterations:   5
  
 
 HOMO energy:    -0.25967
 LUMO energy:    -0.08690
 
  Orbital energies (hartrees): 
   -19.20837   -19.12749   -19.12602   -14.46336   -14.40394   -14.40300
   -14.39189   -10.35086   -10.32395   -10.27029   -10.24791    -1.16937
    -1.10156    -1.07128    -1.02065    -0.99763    -0.95181    -0.84356
    -0.72878    -0.70144    -0.68474    -0.63951    -0.59799    -0.55339
    -0.54404    -0.52478    -0.50175    -0.49904    -0.48419    -0.46611
    -0.44898    -0.43367    -0.40933    -0.37811    -0.34503    -0.32642
    -0.31671    -0.31473    -0.29969    -0.25967    -0.08690    -0.07216
    -0.02488    -0.01430     0.00121     0.00941     0.02842     0.03987
     0.04789     0.05162
 
  end of program scf
   
 Time(scf)  user:       13.6  user+sys:       13.6  wallclock:        2.4
  
  start of program sole
  
    SCRF                   solvation energy
  iteration          Hartrees            kcal/mol
     0               0.0000000            0.0000
     1              -0.0305577          -19.1753
  
  solvation energy not yet converged... 
  
  end of program sole
   
 Time(sole)  user:        0.3  user+sys:        0.3  wallclock:        0.1
  
  start of program ch
  
  gridpoints used for charge fit         3032
    out of a possible maximum of         3032
  
   Electrostatic potential fitting constrained to reproduce
     total charge:                yes
     dipole moment:               no 
     traceless quadrupole moment: no 
     traceless octupole moment:   no 
  
  Atomic charges from electrostatic potential: 
   
 Atom       O1           O2           O3           N4           N5      
 Charge   -0.57104     -0.71697     -0.34709     -0.66802     -0.44208
   
 Atom       N6           N7           C8           C9           C10     
 Charge   -0.46354      0.01559      0.37230      0.59527     -0.29256
   
 Atom       C11          H12          H13          H14          H15     
 Charge    0.90296      0.35209      0.43034      0.39598      0.43676
  
  sum of atomic charges:     0.000000
   
 RMS Error   2.48E-03 hartrees
 
  end of program ch
   
 Time(ch)  user:        4.1  user+sys:        4.1  wallclock:        1.2
  
  start of program post
  
  Writing input files for PBF
  end of program post
   
 Time(post)  user:        2.4  user+sys:        2.4  wallclock:        0.9

  start of program pbf

Pbf Version 4.10

Molecular surface area:      146.27336   [A2]
Reaction field energy:       -56.85356   [kT]

Solvent-accessible surface area:  305.65725 [A2]
Cavity energy:                      4.35246 [kT]

  Peak memory usage: 480 Mb

  end of program pbf

 Time(pbf)  user:        0.1  user+sys:        0.2  wallclock:        0.2
  
  start of program solv
  
   number of surface charges from PBF    1860
   sum of surface charges     -0.00002
   
  nuclear repulsion energy.......     601.815431278 hartrees
  end of program solv
   
 Time(solv)  user:        0.7  user+sys:        0.7  wallclock:        0.1
  
  start of program scf
  
 Energy computed with NOPS off.
 Convergence Criterion:
    Energy (econv):       5.00E-05
    RMS density (dconv):  1.00E-04
  
       i  u  d  i  g                   
       t  p  i  c  r                                 RMS    maximum
       e  d  i  u  i                       energy  density   DIIS  
       r  t  s  t  d       total energy    change  change    error 
  
etot    1  N  N  2  U    -599.72030370592           3.0E-04  2.0E-03
etot    2  Y  Y  6  M    -599.72005018311 -2.5E-04  9.4E-05  4.1E-03
etot    3  Y  Y  6  M    -599.72097144463  9.2E-04  3.4E-05  4.5E-04
etot    4  N  Y  2  U    -599.72083372794 -1.4E-04  1.2E-05  3.6E-04
etot    5  N  N  2  U    -599.72083861120  4.9E-06  0.0E+00  0.0E+00
 
  Computing the dispersion energy correction...
  
  
 Energy components, in hartrees:
   (A)  Total zero-electron terms....     602.19766281788
   (B)    Nuclear-nuclear............     601.81543127812
   (C)    Nuclear-solvent............       0.38223153976
   (E)  Total one-electron terms.....   -2011.38245875770
   (F)    Electron-nuclear...........   -2608.28851615649
   (G)    Electron-solvent...........      -0.48890075676
   (H)    Kinetic....................     597.39495815555
   (I)  Total two-electron terms.....     809.46395732862
   (J)    Coulomb....................     886.08815210274
   (K)    Exchange+Correlation.......     -76.62419477411
   (L)  Electronic energy............   -1201.91850142908  (E+I)
   (N0) D3 correction................      -0.01148267832
   (N)  Total quantum mech. energy...    -599.73232128952  (A+L+N0)
   (O)  Gas phase energy.............    -599.63681786412
   (P)  Solution phase energy........    -599.67487921720  (Q+R+S+T)
   (Q)    Total solute energy........    -599.62565207251  (N-C-G)
   (R)    Total solvent energy.......      -0.05333460850  (C/2+G/2)
   (S)    Solute cavity energy.......       0.00410746381
   (T)    First shell corr. factor...       0.00000000000
   (U)  Reorganization energy........       0.01116579161  (Q-O)
   (V)  Solvation energy.............      -0.03806135308  (P-O)
  
 SCFE:  Solution phase energy: DFT(b3lyp-d3)       -599.67487921720 hartrees
        SCF iterations:   5
  
 
 HOMO energy:    -0.25952
 LUMO energy:    -0.08908
 
  Orbital energies (hartrees): 
   -19.21104   -19.12963   -19.12941   -14.46867   -14.40162   -14.40039
   -14.39264   -10.35134   -10.32576   -10.26758   -10.24592    -1.17111
    -1.10283    -1.07402    -1.02141    -0.99698    -0.95147    -0.84282
    -0.72771    -0.70101    -0.68398    -0.63959    -0.59739    -0.55235
    -0.54233    -0.52562    -0.50248    -0.49907    -0.48674    -0.46888
    -0.44997    -0.43536    -0.40974    -0.37801    -0.34617    -0.32927
    -0.31885    -0.31683    -0.30300    -0.25952    -0.08908    -0.07122
    -0.02568    -0.01123     0.00422     0.01053     0.02862     0.04118
     0.04690     0.05264
 
  end of program scf
   
 Time(scf)  user:       13.2  user+sys:       13.2  wallclock:        2.4
  
  start of program sole
  
    SCRF                   solvation energy
  iteration          Hartrees            kcal/mol
     0               0.0000000            0.0000
     1              -0.0305577          -19.1753
     2              -0.0380614          -23.8839
  
  solvation energy not yet converged... 
  
  end of program sole
   
 Time(sole)  user:        0.3  user+sys:        0.3  wallclock:        0.1
  
  start of program ch
  
  gridpoints used for charge fit         3032
    out of a possible maximum of         3032
  
   Electrostatic potential fitting constrained to reproduce
     total charge:                yes
     dipole moment:               no 
     traceless quadrupole moment: no 
     traceless octupole moment:   no 
  
  Atomic charges from electrostatic potential: 
   
 Atom       O1           O2           O3           N4           N5      
 Charge   -0.59710     -0.73762     -0.33393     -0.66958     -0.44921
   
 Atom       N6           N7           C8           C9           C10     
 Charge   -0.49122      0.01533      0.36050      0.60350     -0.26997
   
 Atom       C11          H12          H13          H14          H15     
 Charge    0.92100      0.36144      0.43718      0.40712      0.44256
  
  sum of atomic charges:     0.000000
   
 RMS Error   2.49E-03 hartrees
 
  end of program ch
   
 Time(ch)  user:        4.0  user+sys:        4.0  wallclock:        1.3
  
  start of program post
  
  Writing input files for PBF
  end of program post
   
 Time(post)  user:        2.6  user+sys:        2.6  wallclock:        1.0

  start of program pbf

Pbf Version 4.10

Molecular surface area:      146.27336   [A2]
Reaction field energy:       -62.47455   [kT]

Solvent-accessible surface area:  305.65725 [A2]
Cavity energy:                      4.35246 [kT]

  Peak memory usage: 480 Mb

  end of program pbf

 Time(pbf)  user:        0.1  user+sys:        0.2  wallclock:        0.2
  
  start of program solv
  
   number of surface charges from PBF    1860
   sum of surface charges     -0.00000
   
  nuclear repulsion energy.......     601.815431278 hartrees
  end of program solv
   
 Time(solv)  user:        0.6  user+sys:        0.6  wallclock:        0.1
  
  start of program scf
  
 Energy computed with NOPS off.
 Convergence Criterion:
    Energy (econv):       5.00E-05
    RMS density (dconv):  1.00E-04
  
       i  u  d  i  g                   
       t  p  i  c  r                                 RMS    maximum
       e  d  i  u  i                       energy  density   DIIS  
       r  t  s  t  d       total energy    change  change    error 
  
etot    1  N  N  2  U    -599.72594698729           9.6E-05  6.2E-04
etot    2  Y  Y  6  M    -599.72604854026  1.0E-04  3.2E-05  1.3E-03
etot    3  N  Y  2  U    -599.72599329146 -5.5E-05  1.0E-05  1.8E-04
etot    4  N  N  2  U    -599.72599548240  2.2E-06  0.0E+00  0.0E+00
 
  Computing the dispersion energy correction...
  
  
 Energy components, in hartrees:
   (A)  Total zero-electron terms....     602.21200746494
   (B)    Nuclear-nuclear............     601.81543127812
   (C)    Nuclear-solvent............       0.39657618682
   (E)  Total one-electron terms.....   -2011.40599280540
   (F)    Electron-nuclear...........   -2608.28184372351
   (G)    Electron-solvent...........      -0.50971170048
   (H)    Kinetic....................     597.38556261859
   (I)  Total two-electron terms.....     809.46798985805
   (J)    Coulomb....................     886.09137443556
   (K)    Exchange+Correlation.......     -76.62338457751
   (L)  Electronic energy............   -1201.93800294734  (E+I)
   (N0) D3 correction................      -0.01148267832
   (N)  Total quantum mech. energy...    -599.73747816072  (A+L+N0)
   (O)  Gas phase energy.............    -599.63681786412
   (P)  Solution phase energy........    -599.67680294008  (Q+R+S+T)
   (Q)    Total solute energy........    -599.62434264706  (N-C-G)
   (R)    Total solvent energy.......      -0.05656775683  (C/2+G/2)
   (S)    Solute cavity energy.......       0.00410746381
   (T)    First shell corr. factor...       0.00000000000
   (U)  Reorganization energy........       0.01247521706  (Q-O)
   (V)  Solvation energy.............      -0.03998507596  (P-O)
  
 SCFE:  Solution phase energy: DFT(b3lyp-d3)       -599.67680294008 hartrees
        SCF iterations:   4
  
 
 HOMO energy:    -0.25939
 LUMO energy:    -0.08981
 
  Orbital energies (hartrees): 
   -19.21175   -19.13247   -19.13001   -14.47064   -14.40008   -14.39960
   -14.39273   -10.35100   -10.32663   -10.26602   -10.24535    -1.17160
    -1.10298    -1.07555    -1.02167    -0.99642    -0.95131    -0.84252
    -0.72716    -0.70090    -0.68365    -0.63958    -0.59708    -0.55185
    -0.54172    -0.52578    -0.50291    -0.49891    -0.48759    -0.46937
    -0.45041    -0.43616    -0.40994    -0.37761    -0.34646    -0.33003
    -0.31938    -0.31773    -0.30457    -0.25939    -0.08981    -0.07097
    -0.02573    -0.01043     0.00497     0.01086     0.02839     0.04144
     0.04663     0.05276
 
  end of program scf
   
 Time(scf)  user:       12.2  user+sys:       12.2  wallclock:        2.2
  
  start of program sole
  
    SCRF                   solvation energy
  iteration          Hartrees            kcal/mol
     0               0.0000000            0.0000
     1              -0.0305577          -19.1753
     2              -0.0380614          -23.8839
     3              -0.0399851          -25.0910
  
  solvation energy not yet converged... 
  
  end of program sole
   
 Time(sole)  user:        0.3  user+sys:        0.3  wallclock:        0.0
  
  start of program ch
  
  gridpoints used for charge fit         3032
    out of a possible maximum of         3032
  
   Electrostatic potential fitting constrained to reproduce
     total charge:                yes
     dipole moment:               no 
     traceless quadrupole moment: no 
     traceless octupole moment:   no 
  
  Atomic charges from electrostatic potential: 
   
 Atom       O1           O2           O3           N4           N5      
 Charge   -0.60403     -0.74098     -0.32557     -0.66890     -0.44996
   
 Atom       N6           N7           C8           C9           C10     
 Charge   -0.50197      0.01626      0.35610      0.60468     -0.26420
   
 Atom       C11          H12          H13          H14          H15     
 Charge    0.92411      0.36441      0.43797      0.40983      0.44223
  
  sum of atomic charges:     0.000000
   
 RMS Error   2.49E-03 hartrees
 
  end of program ch
   
 Time(ch)  user:        4.1  user+sys:        4.1  wallclock:        1.2
  
  start of program post
  
  Writing input files for PBF
  end of program post
   
 Time(post)  user:        2.4  user+sys:        2.4  wallclock:        0.9

  start of program pbf

Pbf Version 4.10

Molecular surface area:      146.27336   [A2]
Reaction field energy:       -64.06324   [kT]

Solvent-accessible surface area:  305.65725 [A2]
Cavity energy:                      4.35246 [kT]

  Peak memory usage: 480 Mb

  end of program pbf

 Time(pbf)  user:        0.1  user+sys:        0.1  wallclock:        0.2
  
  start of program solv
  
   number of surface charges from PBF    1860
   sum of surface charges      0.00000
   
  nuclear repulsion energy.......     601.815431278 hartrees
  end of program solv
   
 Time(solv)  user:        0.6  user+sys:        0.6  wallclock:        0.1
  
  start of program scf
  
 Energy computed with NOPS off.
 Convergence Criterion:
    Energy (econv):       5.00E-05
    RMS density (dconv):  1.00E-04
  
       i  u  d  i  g                   
       t  p  i  c  r                                 RMS    maximum
       e  d  i  u  i                       energy  density   DIIS  
       r  t  s  t  d       total energy    change  change    error 
  
etot    1  N  N  2  U    -599.72738683201           3.3E-05  2.5E-04
etot    2  N  N  2  U    -599.72738132063 -5.5E-06  0.0E+00  0.0E+00
 
  Computing the dispersion energy correction...
  
  
 Energy components, in hartrees:
   (A)  Total zero-electron terms....     602.21779658835
   (B)    Nuclear-nuclear............     601.81543127812
   (C)    Nuclear-solvent............       0.40236531023
   (E)  Total one-electron terms.....   -2011.42472117682
   (F)    Electron-nuclear...........   -2608.30079731044
   (G)    Electron-solvent...........      -0.51774741869
   (H)    Kinetic....................     597.39382355232
   (I)  Total two-electron terms.....     809.47954326784
   (J)    Coulomb....................     886.10423868530
   (K)    Exchange+Correlation.......     -76.62469541746
   (L)  Electronic energy............   -1201.94517790898  (E+I)
   (N0) D3 correction................      -0.01148267832
   (N)  Total quantum mech. energy...    -599.73886399895  (A+L+N0)
   (O)  Gas phase energy.............    -599.63681786412
   (P)  Solution phase energy........    -599.67706548090  (Q+R+S+T)
   (Q)    Total solute energy........    -599.62348189048  (N-C-G)
   (R)    Total solvent energy.......      -0.05769105423  (C/2+G/2)
   (S)    Solute cavity energy.......       0.00410746381
   (T)    First shell corr. factor...       0.00000000000
   (U)  Reorganization energy........       0.01333597364  (Q-O)
   (V)  Solvation energy.............      -0.04024761678  (P-O)
  
 SCFE:  Solution phase energy: DFT(b3lyp-d3)       -599.67706548090 hartrees
        SCF iterations:   2
  
 
 HOMO energy:    -0.25961
 LUMO energy:    -0.08929
 
  Orbital energies (hartrees): 
   -19.21227   -19.13000   -19.12920   -14.46865   -14.40227   -14.39891
   -14.39265   -10.35190   -10.32580   -10.26867   -10.24470    -1.17113
    -1.10317    -1.07459    -1.02127    -0.99713    -0.95156    -0.84258
    -0.72760    -0.70084    -0.68392    -0.63941    -0.59741    -0.55220
    -0.54214    -0.52555    -0.50276    -0.49913    -0.48706    -0.46954
    -0.45024    -0.43582    -0.40988    -0.37808    -0.34620    -0.32983
    -0.31915    -0.31732    -0.30383    -0.25961    -0.08929    -0.07118
    -0.02592    -0.01033     0.00511     0.01086     0.02830     0.04142
     0.04663     0.05270
 
  end of program scf
   
 Time(scf)  user:        7.4  user+sys:        7.4  wallclock:        1.6
  
  start of program sole
  
    SCRF                   solvation energy
  iteration          Hartrees            kcal/mol
     0               0.0000000            0.0000
     1              -0.0305577          -19.1753
     2              -0.0380614          -23.8839
     3              -0.0399851          -25.0910
     4              -0.0402476          -25.2558
  
  solvation energy not yet converged... 
  
  end of program sole
   
 Time(sole)  user:        0.3  user+sys:        0.3  wallclock:        0.0
  
  start of program ch
  
  gridpoints used for charge fit         3032
    out of a possible maximum of         3032
  
   Electrostatic potential fitting constrained to reproduce
     total charge:                yes
     dipole moment:               no 
     traceless quadrupole moment: no 
     traceless octupole moment:   no 
  
  Atomic charges from electrostatic potential: 
   
 Atom       O1           O2           O3           N4           N5      
 Charge   -0.60805     -0.74199     -0.31894     -0.66689     -0.44922
   
 Atom       N6           N7           C8           C9           C10     
 Charge   -0.50568      0.01425      0.35104      0.60246     -0.25672
   
 Atom       C11          H12          H13          H14          H15     
 Charge    0.92540      0.36501      0.43764      0.41056      0.44113
  
  sum of atomic charges:    -0.000000
   
 RMS Error   2.49E-03 hartrees
 
  end of program ch
   
 Time(ch)  user:        4.0  user+sys:        4.0  wallclock:        1.2
  
  start of program post
  
  Writing input files for PBF
  end of program post
   
 Time(post)  user:        2.4  user+sys:        2.4  wallclock:        0.9

  start of program pbf

Pbf Version 4.10

Molecular surface area:      146.27336   [A2]
Reaction field energy:       -65.00822   [kT]

Solvent-accessible surface area:  305.65725 [A2]
Cavity energy:                      4.35246 [kT]

  Peak memory usage: 480 Mb

  end of program pbf

 Time(pbf)  user:        0.1  user+sys:        0.1  wallclock:        0.2
  
  start of program solv
  
   number of surface charges from PBF    1860
   sum of surface charges      0.00000
   
  nuclear repulsion energy.......     601.815431278 hartrees
  end of program solv
   
 Time(solv)  user:        0.6  user+sys:        0.6  wallclock:        0.1
  
  start of program scf
  
 Energy computed with NOPS off.
 Convergence Criterion:
    Energy (econv):       5.00E-05
    RMS density (dconv):  1.00E-04
  
       i  u  d  i  g                   
       t  p  i  c  r                                 RMS    maximum
       e  d  i  u  i                       energy  density   DIIS  
       r  t  s  t  d       total energy    change  change    error 
  
etot    1  N  N  2  U    -599.72820437418           2.1E-05  2.9E-04
etot    2  N  N  2  U    -599.72818178257 -2.3E-05  0.0E+00  0.0E+00
 
  Computing the dispersion energy correction...
  
  
 Energy components, in hartrees:
   (A)  Total zero-electron terms....     602.22041594580
   (B)    Nuclear-nuclear............     601.81543127812
   (C)    Nuclear-solvent............       0.40498466768
   (E)  Total one-electron terms.....   -2011.41511534144
   (F)    Electron-nuclear...........   -2608.27138779248
   (G)    Electron-solvent...........      -0.52052950912
   (H)    Kinetic....................     597.37680196016
   (I)  Total two-electron terms.....     809.46651761308
   (J)    Coulomb....................     886.08871492129
   (K)    Exchange+Correlation.......     -76.62219730821
   (L)  Electronic energy............   -1201.94859772837  (E+I)
   (N0) D3 correction................      -0.01148267832
   (N)  Total quantum mech. energy...    -599.73966446089  (A+L+N0)
   (O)  Gas phase energy.............    -599.63681786412
   (P)  Solution phase energy........    -599.67778457636  (Q+R+S+T)
   (Q)    Total solute energy........    -599.62411961945  (N-C-G)
   (R)    Total solvent energy.......      -0.05777242072  (C/2+G/2)
   (S)    Solute cavity energy.......       0.00410746381
   (T)    First shell corr. factor...       0.00000000000
   (U)  Reorganization energy........       0.01269824467  (Q-O)
   (V)  Solvation energy.............      -0.04096671223  (P-O)
  
 SCFE:  Solution phase energy: DFT(b3lyp-d3)       -599.67778457636 hartrees
        SCF iterations:   2
  
 
 HOMO energy:    -0.25944
 LUMO energy:    -0.09081
 
  Orbital energies (hartrees): 
   -19.20915   -19.13876   -19.13043   -14.47227   -14.40210   -14.39609
   -14.39249   -10.34970   -10.32814   -10.26255   -10.24674    -1.17148
    -1.10276    -1.07794    -1.02223    -0.99517    -0.95090    -0.84265
    -0.72640    -0.70100    -0.68304    -0.63930    -0.59672    -0.55103
    -0.54093    -0.52564    -0.50352    -0.49836    -0.48831    -0.46947
    -0.45111    -0.43724    -0.41037    -0.37679    -0.34659    -0.33070
    -0.31977    -0.31882    -0.30677    -0.25944    -0.09081    -0.07086
    -0.02559    -0.00993     0.00549     0.01102     0.02808     0.04154
     0.04649     0.05279
 
  end of program scf
   
 Time(scf)  user:        7.3  user+sys:        7.3  wallclock:        1.5
  
  start of program sole
  
    SCRF                   solvation energy
  iteration          Hartrees            kcal/mol
     0               0.0000000            0.0000
     1              -0.0305577          -19.1753
     2              -0.0380614          -23.8839
     3              -0.0399851          -25.0910
     4              -0.0402476          -25.2558
     5              -0.0409667          -25.7070
  
  solvation energy not yet converged... 
  
  end of program sole
   
 Time(sole)  user:        0.3  user+sys:        0.3  wallclock:        0.0
  
  start of program ch
  
  gridpoints used for charge fit         3032
    out of a possible maximum of         3032
  
   Electrostatic potential fitting constrained to reproduce
     total charge:                yes
     dipole moment:               no 
     traceless quadrupole moment: no 
     traceless octupole moment:   no 
  
  Atomic charges from electrostatic potential: 
   
 Atom       O1           O2           O3           N4           N5      
 Charge   -0.60517     -0.74038     -0.32199     -0.66877     -0.45095
   
 Atom       N6           N7           C8           C9           C10     
 Charge   -0.50593      0.01659      0.35746      0.60514     -0.26694
   
 Atom       C11          H12          H13          H14          H15     
 Charge    0.92367      0.36662      0.43783      0.41122      0.44157
  
  sum of atomic charges:     0.000000
   
 RMS Error   2.50E-03 hartrees
 
  end of program ch
   
 Time(ch)  user:        4.0  user+sys:        4.0  wallclock:        1.2
  
  start of program post
  
  Writing input files for PBF
  end of program post
   
 Time(post)  user:        2.5  user+sys:        2.5  wallclock:        0.9

  start of program pbf

Pbf Version 4.10

Molecular surface area:      146.27336   [A2]
Reaction field energy:       -64.35053   [kT]

Solvent-accessible surface area:  305.65725 [A2]
Cavity energy:                      4.35246 [kT]

  Peak memory usage: 480 Mb

  end of program pbf

 Time(pbf)  user:        0.1  user+sys:        0.1  wallclock:        0.2
  
  start of program solv
  
   number of surface charges from PBF    1860
   sum of surface charges      0.00000
   
  nuclear repulsion energy.......     601.815431278 hartrees
  end of program solv
   
 Time(solv)  user:        0.8  user+sys:        0.8  wallclock:        0.1
  
  start of program scf
  
 Energy computed with NOPS off.
 Convergence Criterion:
    Energy (econv):       5.00E-05
    RMS density (dconv):  1.00E-04
  
       i  u  d  i  g                   
       t  p  i  c  r                                 RMS    maximum
       e  d  i  u  i                       energy  density   DIIS  
       r  t  s  t  d       total energy    change  change    error 
  
etot    1  N  N  2  U    -599.72760546078           4.0E-05  5.7E-04
etot    2  N  Y  2  U    -599.72750984794 -9.6E-05  3.3E-05  1.4E-03
etot    3  N  Y  2  U    -599.72762826522  1.2E-04  2.7E-06  1.1E-04
etot    4  N  N  2  U    -599.72762889227  6.3E-07  0.0E+00  0.0E+00
 
  Computing the dispersion energy correction...
  
  
 Energy components, in hartrees:
   (A)  Total zero-electron terms....     602.22076925711
   (B)    Nuclear-nuclear............     601.81543127812
   (C)    Nuclear-solvent............       0.40533797899
   (E)  Total one-electron terms.....   -2011.42258819589
   (F)    Electron-nuclear...........   -2608.28952734849
   (G)    Electron-solvent...........      -0.52061163880
   (H)    Kinetic....................     597.38755079140
   (I)  Total two-electron terms.....     809.47419004652
   (J)    Coulomb....................     886.09792820800
   (K)    Exchange+Correlation.......     -76.62373816148
   (L)  Electronic energy............   -1201.94839814938  (E+I)
   (N0) D3 correction................      -0.01148267832
   (N)  Total quantum mech. energy...    -599.73911157059  (A+L+N0)
   (O)  Gas phase energy.............    -599.63681786412
   (P)  Solution phase energy........    -599.67736727687  (Q+R+S+T)
   (Q)    Total solute energy........    -599.62383791077  (N-C-G)
   (R)    Total solvent energy.......      -0.05763682991  (C/2+G/2)
   (S)    Solute cavity energy.......       0.00410746381
   (T)    First shell corr. factor...       0.00000000000
   (U)  Reorganization energy........       0.01297995335  (Q-O)
   (V)  Solvation energy.............      -0.04054941274  (P-O)
  
 SCFE:  Solution phase energy: DFT(b3lyp-d3)       -599.67736727687 hartrees
        SCF iterations:   4
  
 
 HOMO energy:    -0.25957
 LUMO energy:    -0.08995
 
  Orbital energies (hartrees): 
   -19.21116   -19.13280   -19.12993   -14.47034   -14.40005   -14.39994
   -14.39284   -10.35106   -10.32689   -10.26622   -10.24551    -1.17131
    -1.10303    -1.07590    -1.02166    -0.99638    -0.95138    -0.84265
    -0.72714    -0.70097    -0.68363    -0.63940    -0.59718    -0.55178
    -0.54171    -0.52561    -0.50307    -0.49889    -0.48758    -0.46945
    -0.45055    -0.43640    -0.41012    -0.37758    -0.34636    -0.33015
    -0.31943    -0.31795    -0.30494    -0.25957    -0.08995    -0.07109
    -0.02582    -0.01015     0.00528     0.01092     0.02819     0.04145
     0.04658     0.05272
 
  end of program scf
   
 Time(scf)  user:       16.6  user+sys:       16.6  wallclock:        2.8
  
  start of program sole
  
    SCRF                   solvation energy
  iteration          Hartrees            kcal/mol
     0               0.0000000            0.0000
     1              -0.0305577          -19.1753
     2              -0.0380614          -23.8839
     3              -0.0399851          -25.0910
     4              -0.0402476          -25.2558
     5              -0.0409667          -25.7070
     6              -0.0405494          -25.4451
  
  solvation energy not yet converged... 
  
  end of program sole
   
 Time(sole)  user:        0.3  user+sys:        0.3  wallclock:        0.0
  
  start of program ch
  
  gridpoints used for charge fit         3032
    out of a possible maximum of         3032
  
   Electrostatic potential fitting constrained to reproduce
     total charge:                yes
     dipole moment:               no 
     traceless quadrupole moment: no 
     traceless octupole moment:   no 
  
  Atomic charges from electrostatic potential: 
   
 Atom       O1           O2           O3           N4           N5      
 Charge   -0.60640     -0.74132     -0.32068     -0.66790     -0.44973
   
 Atom       N6           N7           C8           C9           C10     
 Charge   -0.50628      0.01595      0.35458      0.60399     -0.26213
   
 Atom       C11          H12          H13          H14          H15     
 Charge    0.92444      0.36556      0.43784      0.41062      0.44147
  
  sum of atomic charges:     0.000000
   
 RMS Error   2.50E-03 hartrees
 
  end of program ch
   
 Time(ch)  user:        4.7  user+sys:        4.7  wallclock:        1.4
  
  start of program post
  
  Writing input files for PBF
  end of program post
   
 Time(post)  user:        2.8  user+sys:        2.8  wallclock:        1.0

  start of program pbf

Pbf Version 4.10

Molecular surface area:      146.27336   [A2]
Reaction field energy:       -64.64615   [kT]

Solvent-accessible surface area:  305.65725 [A2]
Cavity energy:                      4.35246 [kT]

  Peak memory usage: 480 Mb

  end of program pbf

 Time(pbf)  user:        0.1  user+sys:        0.1  wallclock:        0.2
  
  start of program solv
  
   number of surface charges from PBF    1860
   sum of surface charges      0.00001
   
  nuclear repulsion energy.......     601.815431278 hartrees
  end of program solv
   
 Time(solv)  user:        0.6  user+sys:        0.6  wallclock:        0.1
  
  start of program scf
  
 Energy computed with NOPS off.
 Convergence Criterion:
    Energy (econv):       5.00E-05
    RMS density (dconv):  1.00E-04
  
       i  u  d  i  g                   
       t  p  i  c  r                                 RMS    maximum
       e  d  i  u  i                       energy  density   DIIS  
       r  t  s  t  d       total energy    change  change    error 
  
etot    1  N  N  2  U    -599.72789114127           9.0E-06  8.1E-05
etot    2  N  N  2  U    -599.72789016666 -9.7E-07  0.0E+00  0.0E+00
 
  Computing the dispersion energy correction...
  
  
 Energy components, in hartrees:
   (A)  Total zero-electron terms....     602.22031078455
   (B)    Nuclear-nuclear............     601.81543127812
   (C)    Nuclear-solvent............       0.40487950643
   (E)  Total one-electron terms.....   -2011.42179617803
   (F)    Electron-nuclear...........   -2608.28965620702
   (G)    Electron-solvent...........      -0.52064401696
   (H)    Kinetic....................     597.38850404595
   (I)  Total two-electron terms.....     809.47359522682
   (J)    Coulomb....................     886.09751760829
   (K)    Exchange+Correlation.......     -76.62392238147
   (L)  Electronic energy............   -1201.94820095121  (E+I)
   (N0) D3 correction................      -0.01148267832
   (N)  Total quantum mech. energy...    -599.73937284498  (A+L+N0)
   (O)  Gas phase energy.............    -599.63681786412
   (P)  Solution phase energy........    -599.67738312590  (Q+R+S+T)
   (Q)    Total solute energy........    -599.62360833445  (N-C-G)
   (R)    Total solvent energy.......      -0.05788225527  (C/2+G/2)
   (S)    Solute cavity energy.......       0.00410746381
   (T)    First shell corr. factor...       0.00000000000
   (U)  Reorganization energy........       0.01320952968  (Q-O)
   (V)  Solvation energy.............      -0.04056526178  (P-O)
  
 SCFE:  Solution phase energy: DFT(b3lyp-d3)       -599.67738312590 hartrees
        SCF iterations:   2
  
 
 HOMO energy:    -0.25970
 LUMO energy:    -0.08980
 
  Orbital energies (hartrees): 
   -19.21123   -19.13152   -19.13004   -14.46944   -14.40096   -14.40035
   -14.39276   -10.35135   -10.32661   -10.26727   -10.24529    -1.17112
    -1.10312    -1.07551    -1.02158    -0.99670    -0.95147    -0.84273
    -0.72738    -0.70096    -0.68375    -0.63935    -0.59734    -0.55197
    -0.54188    -0.52553    -0.50303    -0.49898    -0.48737    -0.46953
    -0.45047    -0.43626    -0.41015    -0.37780    -0.34631    -0.33009
    -0.31935    -0.31777    -0.30462    -0.25970    -0.08980    -0.07118
    -0.02589    -0.01015     0.00529     0.01090     0.02816     0.04143
     0.04658     0.05270
 
  end of program scf
   
 Time(scf)  user:        7.8  user+sys:        7.8  wallclock:        1.6
  
  start of program sole
  
    SCRF                   solvation energy
  iteration          Hartrees            kcal/mol
     0               0.0000000            0.0000
     1              -0.0305577          -19.1753
     2              -0.0380614          -23.8839
     3              -0.0399851          -25.0910
     4              -0.0402476          -25.2558
     5              -0.0409667          -25.7070
     6              -0.0405494          -25.4451
     7              -0.0405653          -25.4551
  
  stopping: solvation energy converged
  
  iterations:   7    sfinal:    -25.4551 kcal/mol
  
  end of program sole
   
 Time(sole)  user:        0.3  user+sys:        0.3  wallclock:        0.1
  
  start of program post
  
  Writing input files for PBF
  end of program post
   
 Time(post)  user:        2.5  user+sys:        2.5  wallclock:        0.9

 Total cpu seconds     user:     126.686   user+sys:     126.686
  
 Total elapsed time:    44 seconds

Job 20116_bond_spe_B3LYP-D3_6-311Gppss completed on vm-linux1 at Mon May 26 16:40:17 2025
