Job 20116_isomer1 started on vm-linux2 at Tue Jan 28 13:43:39 2025
jobid: vm-linux2-0-6798c2ea

  +--------------------------------------------------------------------+
  |  Jaguar version 11.2, release 117                                  |
  |                                                                    |
  |  Copyright Schrodinger, Inc.                                       |
  |  All Rights Reserved.                                              |
  |                                                                    |
  |  The following have contributed to Jaguar (listed alphabetically): |
  |  Mike Beachy, Art Bochevarov, Dale Braden, Yixiang Cao,            |
  |  Alan Chien, Chris Cortis, Rich Friesner, Bill Goddard,            |
  |  Hod Greeley, Tom Hughes, Leif Jacobson, Jean-Marc Langlois,       |
  |  Daniel Levine, Daniel Mainz, Rob Murphy, Dean Philipp,            |
  |  Tom Pollard, Murco Ringnalda, Mark Watson, Haoyu Yu.              |
  |                                                                    |
  |  Use of this program should be acknowledged in publications as:    |
  |                                                                    |
  |  Jaguar, version 11.2, Schrodinger, Inc., New York, NY, 2021.      |
  |                                                                    |
  |  A. D. Bochevarov, E. Harder, T. F. Hughes, J. R. Greenwood,       |
  |  D. A. Braden, D. M. Philipp, D. Rinaldo, M. D. Halls,             |
  |  J. Zhang, R. A. Friesner, "Jaguar: A High-Performance Quantum     |
  |  Chemistry Software Program with Strengths in Life and Materials   |
  |  Sciences", Int. J. Quantum Chem., 2013, 113(18), 2110-2142.       |
  +--------------------------------------------------------------------+
  
  start of program pre
  
  Job name: 20116_isomer1
  Executables used: /mnt/Data_4/SCHRODINGER_2021-2/jaguar-v11.2/bin/Linux-x86_64
  Temporary files : /home/vm/.schrodinger/tmp/20116_isomer1#vm-linux2-0-6798c2ea
  Maestro file (input):  20116_isomer1.mae
  Maestro file (output): 20116_isomer1.01.mae
  
 Contents of input file: &gen section only
 ----------------Contents start----------------
&gen
irder=1
iuhf=0
basis=CC-PVTZ(-F)++
massav=1
scalfr=0.95
dftname=M06-2X
ifreq=1
ncanorb=378
&
 -----------------Contents end-----------------
 
  basis set:             cc-pvtz(-f)++                   
  net molecular charge:    0
  multiplicity:            1
  
  Using up to   4 threads per process
  
  number of basis functions....          404
  
 Input geometry:
                                   angstroms
  atom               x                 y                 z
  O1           -1.8172850000     -1.4687530000     -0.0611960000 
  O2           -1.7465100000      3.1123850000      0.1437850000 
  O3            2.7554820000     -2.8415650000     -0.1109530000 
  N4           -1.7434900000      0.8112660000      0.0440660000 
  N5            0.2460060000      1.9894000000     -0.0301770000 
  N6            1.0003990000     -1.6269320000     -0.2770570000 
  N7            2.1527930000     -1.6226710000      0.1815400000 
  C8            0.3311190000     -0.3946850000     -0.1236760000 
  C9           -1.1390800000     -0.4608140000     -0.0549480000 
  C10           0.9478330000      0.8172460000     -0.1177380000 
  C11          -1.1457780000      2.0587500000      0.0629690000 
  H12           2.0247940000      0.9022000000     -0.1975660000 
  H13          -2.7543740000      0.8108190000      0.1068700000 
  H14           0.7152110000      2.8834020000     -0.0546520000 
  H15           3.6139320000     -2.7563290000      0.3315090000 
   
  principal moments of inertia:
        amu*angstrom^2:      194.79757      762.58694      952.99696
                g*cm^2: 3.23468939E-38 1.26630525E-37 1.58248849E-37
   
  rotational constants:
               cm^(-1):      0.08653922      0.02210585      0.01768907
                   GHz:      2.59438041      0.66271658      0.53030495
   
  Molecular weight:     156.10 amu
   
  Stoichiometry: C4N4H4O3
[running at reduced cpu priority]
  Molecular Point Group: C1      
  Point Group used: C1
  
  nuclear repulsion energy.......     588.765252531 hartrees
 
 Non-default options chosen:
   SCF calculation type: DFT(m06-2x)                 
   DFT=M06-2X (M06-2X)
   Vibrational frequencies and related properties will be computed
      from analytic second derivatives
   IR intensities will be computed
   Vibrational frequencies will be scaled by a factor of  0.950
   Naturally occuring average isotopic masses used 
   Thermochemical properties will be computed
  
 Temporary integer options set:
     73=  2
  
   Fixing number of canonical orbitals to remain constant.
   Number of canonical orbitals to use:   378
  
  end of program pre
   
 Time(pre)  user:        2.1  user+sys:        2.1  wallclock:        1.0
  
  start of program onee
  
  smallest eigenvalue of S:    4.604E-06
  Set cut 20/10 to   5.437780479437295E-004
  number of canonical orbitals.....          378
  end of program onee
   
 Time(onee)  user:        0.5  user+sys:        0.5  wallclock:        0.2
  
  start of program hfig
  
  initial wavefunction generated automatically from atomic wavefunctions
 
  Irreducible     Total no   No of occupied orbitals 
  representation  orbitals   Shell_1  Shell_2    ...
  No Symm          378         40
  ------------------------
  Orbital occupation/shell    1.000
 
  end of program hfig
   
 Time(hfig)  user:        0.7  user+sys:        0.7  wallclock:        0.2
  
  start of program probe
  
  end of program probe
   
 Time(probe)  user:        0.5  user+sys:        0.5  wallclock:        0.1
  
  start of program grid
  
   grid     grid set  grid #  grid sym
  ------    --------  ------  --------
  coarse        0        0        1
  medium        2        1        1
  fine          0        0        1
  ultrafine     4        2        1
  charge        0        0        1
  gradient      4        2        1
  density       0        0        1
  DFT-fine    -11        3        1
  DFT-med.    -10        4        1
  DFT-grad    -12        5        1
  DFT-der2     -8        6        1
  DFT-cphf     -9        7        1
  LMP2-enrg     4        2        1
  LMP2-grad     2        1        1
  DFT-cphf2   -15        8        1
  PBF-dens      0        0        1
  plotting      0        0        1
  Rel-grad    -17        0        1
  
  number of gridpoints: 
     atom        O1       O2       O3       N4       N5       N6       N7
  grid # 1      734      734      644      531      524      624      621
  grid # 2      734      734      644      531      524      624      621
  grid # 3     5654     5654     5654     5654     5654     5654     5654
  grid # 4     2152     2152     2152     2152     2152     2152     2152
  grid # 5    19580    19580    19580    19580    19580    19580    19580
  grid # 6    63040    63040    63040    62394    62394    62394    62394
  grid # 7     7568     7568     7568     8972     8972     8972     8972
  grid # 8     1434     1434     1434     3852     3852     3852     3852
   
  number of gridpoints: 
     atom        C8       C9      C10      C11      H12      H13      H14
  grid # 1      524      510      480      504      223      226      226
  grid # 2      524      510      480      504      222      224      225
  grid # 3     5654     5654     5654     5654     5654     5654     5654
  grid # 4     2152     2152     2152     2152     2152     2152     2152
  grid # 5    19580    19580    19580    19580    19580    19580    19580
  grid # 6    62658    62658    62658    62658    66806    66806    66806
  grid # 7     9014     9014     9014     9014     9848     9848     9848
  grid # 8     3806     3806     3806     3806     2486     2486     2486
   
  number of gridpoints: 
     atom       H15    total
  grid # 1      229     7334
  grid # 2      228     7329
  grid # 3     5654    84810
  grid # 4     2152    32280
  grid # 5    19580   293700
  grid # 6    66806   956552
  grid # 7     9848   134040
  grid # 8     2486    44878
   
  end of program grid
   
 Time(grid)  user:        5.1  user+sys:        5.1  wallclock:        1.4
  
  start of program rwr
  
  end of program rwr
   
 Time(rwr)  user:        3.0  user+sys:        3.0  wallclock:        0.8
  
  start of program scf
  
 number of electrons..........         80
 number of alpha electrons....         40
 number of beta electrons.....         40
 number of orbitals, total....        378
 number of doubly-occ'd orbs..         40
 number of open shell orbs....          0
 number of occupied orbitals..         40
 number of virtual orbitals...        338
 number of hamiltonians.......          1
 number of shells.............          1
 SCF type: DFT=M06-2X (M06-2X)
 Energy computed with NOPS off.
 Convergence Criterion:
    Energy (econv):       1.00E-05
    RMS density (dconv):  5.00E-06
  
       i  u  d  i  g                   
       t  p  i  c  r                                 RMS    maximum
       e  d  i  u  i                       energy  density   DIIS  
       r  t  s  t  d       total energy    change  change    error 
  
etot    1  N  N  5  M    -597.55889962109           2.4E-03  1.1E-01
etot    2  Y  Y  6  M    -598.39028776196  8.3E-01  1.8E-03  8.3E-02
etot    3  Y  Y  6  M    -599.20636826142  8.2E-01  6.4E-04  4.9E-02
etot    4  N  Y  2  U    -599.44473129145  2.4E-01  4.3E-04  5.5E-03
etot    5  Y  Y  6  M    -599.45248582584  7.8E-03  1.1E-04  2.8E-03
etot    6  N  Y  2  U    -599.45383470481  1.3E-03  3.5E-05  1.6E-03
etot    7  N  Y  2  U    -599.45422317734  3.9E-04  8.7E-06  3.4E-04
etot    8  N  Y  2  U    -599.45424715151  2.4E-05  3.1E-06  9.4E-05
etot    9  N  N  2  U    -599.45424970653  2.6E-06  0.0E+00  0.0E+00
  
  
 Energy components, in hartrees:
   (A)  Nuclear repulsion............     588.76525253081
   (E)  Total one-electron terms.....   -1984.10938078939
   (I)  Total two-electron terms.....     795.88987855205
   (J)    Coulomb....................     872.18907582237
   (K)    Exchange+Correlation.......     -76.29919727032
   (L)  Electronic energy............   -1188.21950223734  (E+I)
   (N)  Total energy.................    -599.45424970653  (A+L)
   (O)  Gas phase energy.............    -599.45424970653
  
 SCFE: SCF energy: DFT(m06-2x)      -599.45424970653 hartrees   iterations:   9
  
 
 HOMO energy:    -0.31028
 LUMO energy:    -0.05422
 
  Orbital energies (hartrees): 
   -19.70164   -19.63141   -19.62578   -14.89338   -14.84348   -14.82983
   -14.82311   -10.72170   -10.68806   -10.64937   -10.61564    -1.27595
    -1.22333    -1.19137    -1.12917    -1.11298    -1.05667    -0.92902
    -0.82318    -0.77625    -0.76926    -0.67564    -0.66715    -0.62713
    -0.61418    -0.59306    -0.58392    -0.57198    -0.55422    -0.53920
    -0.51663    -0.50431    -0.48880    -0.46129    -0.41083    -0.39775
    -0.37190    -0.36599    -0.35982    -0.31028    -0.05422    -0.02200
    -0.00885    -0.00511     0.00558     0.01759     0.02176     0.03207
     0.03989     0.04724
 
  end of program scf
   
 Time(scf)  user:      101.7  user+sys:      101.7  wallclock:       26.3
  
  start of program cutabab2
  
  end of program cutabab2
   
 Time(cutabab2)  user:        2.7  user+sys:        2.7  wallclock:        0.9
  
  start of program der2a
  
  end of program der2a
   
 Time(der2a)  user:        3.1  user+sys:        3.1  wallclock:        0.8
  
  start of program der2b
  
  end of program der2b
   
 Time(der2b)  user:     4094.4  user+sys:     4094.4  wallclock:     1052.1
  
  start of program der2nda
  
 
  end of program der2nda
   
 Time(der2nda)  user:        1.1  user+sys:        1.1  wallclock:        0.6
  
  start of program der2ndb
  
  end of program der2ndb
   
 Time(der2ndb)  user:    13908.9  user+sys:    13908.9  wallclock:     3896.2
  
  start of program rwr
  
  end of program rwr
   
 Time(rwr)  user:        3.8  user+sys:        3.8  wallclock:        1.1
  
  start of program cphfa
  
       2  vectors produced in CPHF
  
     v    i  j  k  i  g
     e    t  c  c  c  r
     c    e  o  o  u  i
     t    r  r  r  t  d       RMS  
  
     1    1  0  0  6  M     1.2E-02
     1    2  0  0  6  M     1.6E-03
     1    3  0  0  6  M     4.5E-04
     1    4  0  0  6  M     1.7E-04
     1    5  0  0  6  M     6.4E-05
     1    6  0  0  6  M     2.6E-05
  
     v    i  j  k  i  g
     e    t  c  c  c  r
     c    e  o  o  u  i
     t    r  r  r  t  d       RMS  
  
     2    1  0  0  6  M     1.1E-02
     2    2  0  0  6  M     8.2E-04
     2    3  0  0  6  M     3.6E-04
     2    4  0  0  6  M     1.4E-04
     2    5  0  0  6  M     5.4E-05
     2    6  0  0  6  M     2.5E-05
  
  
  Atomic Polar Tensors (au): Total
  =========================
  
  APT for atom O1      
  --------------------------------------
       -0.9270      -0.5292      -0.0073
       -0.4216      -1.1562      -0.0197
        0.0088       0.0032      -0.3742
  --------------------------------------
  
  APT for atom O2      
  --------------------------------------
       -0.9130       0.6798       0.0442
        0.5643      -1.5613      -0.0661
        0.0550      -0.0895      -0.4148
  --------------------------------------
  
  APT for atom O3      
  --------------------------------------
       -0.8108       0.6012       0.0292
        1.0788      -1.2753       0.0983
        0.3018      -0.1538      -0.2744
  --------------------------------------
  
  APT for atom N4      
  --------------------------------------
       -0.4615       0.0726       0.0065
        0.0289      -1.5032      -0.0540
        0.0081      -0.0580      -0.3153
  --------------------------------------
  
  APT for atom N5      
  --------------------------------------
       -1.1216       1.0907       0.0566
        0.1708      -1.2515      -0.0152
        0.0531      -0.1136      -0.2685
  --------------------------------------
  
  APT for atom N6      
  --------------------------------------
       -0.5109       0.2783      -0.0100
       -0.2141       0.0638      -0.0548
       -0.2371       0.2295      -0.0922
  --------------------------------------
  
  APT for atom N7      
  --------------------------------------
        0.6846      -0.5671       0.0272
       -0.9636       0.9637      -0.0288
       -0.1426       0.0861      -0.0061
  --------------------------------------
  
  APT for atom C8      
  --------------------------------------
       -0.2344      -0.7460       0.0042
       -0.0261      -0.4726       0.0307
        0.0720      -0.0495      -0.0609
  --------------------------------------
  
  APT for atom C9      
  --------------------------------------
        1.4520       0.3682      -0.0257
        0.3191       1.7855       0.0672
       -0.0039      -0.0196       0.3466
  --------------------------------------
  
  APT for atom C10     
  --------------------------------------
        0.1459      -0.3229      -0.0365
       -0.1367       1.4976       0.0178
       -0.0485       0.1395       0.0525
  --------------------------------------
  
  APT for atom C11     
  --------------------------------------
        1.7827      -0.9527      -0.0878
       -0.4301       2.1253       0.0932
       -0.1181       0.1489       0.3972
  --------------------------------------
  
  APT for atom H12     
  --------------------------------------
        0.0500       0.0227       0.0148
        0.0027       0.0906      -0.0074
        0.0244      -0.0210       0.1371
  --------------------------------------
  
  APT for atom H13     
  --------------------------------------
        0.2970      -0.0027       0.0005
        0.0052       0.1321      -0.0060
       -0.0008      -0.0065       0.2809
  --------------------------------------
  
  APT for atom H14     
  --------------------------------------
        0.1723       0.1378       0.0083
        0.0709       0.2928      -0.0060
        0.0276      -0.0126       0.2930
  --------------------------------------
  
  APT for atom H15     
  --------------------------------------
        0.3950      -0.1306      -0.0242
       -0.0487       0.2688      -0.0490
        0.0000      -0.0831       0.2990
  --------------------------------------
  
  end of program cphfa
   
 Time(cphfa)  user:     5781.7  user+sys:     5781.7  wallclock:     1447.2
  
  start of program freq
  
  All frequencies are shown scaled by:  0.9500
  Thermochemical calculations use scaled frequencies.
   
  Number of frequencies:  39
  harmonic frequencies in cm**-1, reduced masses in amu,
  force constants in mDyne/A, and
  normal modes in cartesian coordinates:          39
  IR intensities in km/mol
  
  vibration #            1        2        3        4        5        6
                  -------- -------- -------- -------- -------- --------
  frequencies       107.81   154.64   173.42   201.96   255.21   316.53
  intensities         0.89     0.24     1.70     3.11     6.96     2.97
  reduc. mass         2.37     2.86     5.49     2.43     5.88     2.73
  force const         0.02     0.04     0.10     0.06     0.23     0.16
    O1       X     0.00337  0.10269  0.00026  0.00064  0.02805  0.09895
    O1       Y     0.00022 -0.01618 -0.00576  0.00994 -0.01268 -0.07607
    O1       Z     0.05498  0.02455  0.11416 -0.06041  0.00952 -0.01885
    O2       X    -0.01339 -0.07047  0.01402 -0.01328  0.00276  0.05846
    O2       Y     0.00855 -0.01719 -0.00280  0.00116 -0.00513 -0.02971
    O2       Z    -0.12996  0.00455  0.09970  0.06433  0.01284 -0.00683
    O3       X     0.00098 -0.10132  0.00812 -0.01183  0.01868 -0.08977
    O3       Y    -0.00660 -0.10659  0.01180 -0.03671  0.04917  0.08000
    O3       Z    -0.10500  0.02216  0.01215 -0.06429 -0.09588 -0.00729
    N4       X    -0.00594  0.00880 -0.01299 -0.00766  0.00360 -0.00159
    N4       Y     0.00468 -0.01252  0.00958  0.00612 -0.00334 -0.02997
    N4       Z    -0.04216 -0.00654 -0.19896 -0.04171 -0.00284 -0.00382
    N5       X     0.00191 -0.02633  0.00375 -0.01818  0.00148  0.03584
    N5       Y     0.00018  0.04992 -0.00587  0.01374  0.00537 -0.01506
    N5       Z     0.09946  0.00513  0.01059 -0.11491 -0.06025  0.01042
    N6       X    -0.00185  0.01803 -0.00344 -0.00247  0.00875 -0.09301
    N6       Y     0.00436  0.04137 -0.00572 -0.00634  0.02895  0.02025
    N6       Z     0.01610 -0.03263 -0.00962  0.14844 -0.06874  0.05800
    N7       X     0.01447  0.00376 -0.00521  0.05636 -0.08824 -0.06641
    N7       Y    -0.01668 -0.04255  0.00747 -0.00838 -0.07029  0.07394
    N7       Z    -0.02687 -0.00443 -0.00430 -0.00349  0.17497 -0.02366
    C8       X     0.00294  0.05185 -0.00609  0.01141  0.00281 -0.02073
    C8       Y     0.00051  0.05650 -0.00392  0.00317  0.00652  0.02951
    C8       Z     0.07100 -0.02257 -0.02624  0.11099  0.04282  0.01038
    C9       X     0.00098  0.05649 -0.00528  0.00298  0.00790  0.00874
    C9       Y     0.00189  0.01464 -0.00079  0.00697  0.00160 -0.01434
    C9       Z     0.03514  0.00022 -0.01851  0.00161  0.01633  0.00067
    C10      X     0.00383  0.02048 -0.00103 -0.00182  0.00839  0.03084
    C10      Y     0.00029  0.07161 -0.00687  0.01298  0.00126 -0.00429
    C10      Z     0.11415 -0.00557 -0.00389  0.02113  0.00058 -0.00592
    C11      X    -0.00726 -0.03119  0.00261 -0.01402  0.00655  0.03850
    C11      Y     0.00487  0.00533 -0.00046  0.00711 -0.00100 -0.03890
    C11      Z    -0.03651  0.00011 -0.01575 -0.01789 -0.01312 -0.00004
    H12      X     0.00670  0.01850  0.00107 -0.00143  0.00658  0.03113
    H12      Y     0.00110  0.11026 -0.01041  0.01960 -0.00316 -0.03165
    H12      Z     0.15312  0.00129  0.02246  0.02951 -0.02601 -0.01643
    H13      X    -0.00990  0.00952 -0.01075 -0.00756  0.00446 -0.00212
    H13      Y     0.00601 -0.04731  0.01097 -0.00162 -0.00016  0.00536
    H13      Z    -0.10592  0.00388 -0.16292 -0.04017  0.01056 -0.01430
    H14      X     0.00351 -0.05611  0.01475 -0.01801 -0.00102  0.01202
    H14      Y    -0.00038  0.06596 -0.00886  0.01453  0.00630 -0.00311
    H14      Z     0.10662  0.01860  0.11486 -0.08266 -0.06403 -0.00486
    H15      X     0.01781 -0.09788  0.00464  0.04296 -0.06737 -0.05887
    H15      Y    -0.02750 -0.17505  0.02443 -0.05777 -0.05453  0.08956
    H15      Z    -0.13379  0.02856  0.01650 -0.16661  0.09117 -0.07060
  
  vibration #            7        8        9       10       11       12
                  -------- -------- -------- -------- -------- --------
  frequencies       377.74   393.47   409.95   459.13   515.28   529.54
  intensities        16.03    14.94    19.17     5.66    12.82    96.16
  reduc. mass         2.30     2.97     2.49     2.50     1.88     0.83
  force const         0.19     0.27     0.25     0.31     0.29     0.14
    O1       X    -0.01218 -0.10825 -0.04893 -0.00182  0.00579 -0.00600
    O1       Y     0.02492  0.04916 -0.05862  0.00244  0.11569  0.01058
    O1       Z    -0.02067  0.01466 -0.00249  0.04240  0.00262  0.00168
    O2       X    -0.03612 -0.06685  0.10008  0.00776  0.04749  0.01121
    O2       Y    -0.01903 -0.12692  0.03387  0.01179 -0.04540 -0.00551
    O2       Z    -0.01812  0.00209 -0.00625 -0.00761 -0.00517 -0.00135
    O3       X     0.00313 -0.05649 -0.06166 -0.00989 -0.00856 -0.02422
    O3       Y    -0.00110  0.02061 -0.02412  0.00351  0.01245 -0.01918
    O3       Z    -0.03543 -0.00602 -0.01201 -0.06110 -0.00134  0.03877
    N4       X     0.01273  0.07717 -0.04265 -0.00723 -0.09174 -0.00962
    N4       Y     0.00469 -0.02675 -0.02536 -0.00286 -0.01414 -0.00523
    N4       Z    -0.03366 -0.00255 -0.00751  0.03443  0.00372  0.00051
    N5       X     0.01603  0.06894 -0.01655 -0.01050 -0.04502 -0.00570
    N5       Y     0.00475  0.02618 -0.01548 -0.00811 -0.10261 -0.00698
    N5       Z     0.12738 -0.02209  0.01577  0.01210 -0.00557  0.00485
    N6       X    -0.00591  0.01674  0.09962  0.00866  0.00284  0.01922
    N6       Y    -0.01454  0.05568  0.11155 -0.01245  0.01256  0.01916
    N6       Z     0.07341 -0.00515 -0.02142  0.11321 -0.00786 -0.03029
    N7       X     0.00747  0.00767  0.07513  0.02571  0.00378 -0.01501
    N7       Y    -0.01400  0.04169  0.05042  0.00400  0.01118 -0.02002
    N7       Z     0.04836  0.00773  0.03474  0.07474 -0.00577  0.05477
    C8       X     0.01201  0.00223 -0.02304 -0.00053  0.05007  0.00603
    C8       Y    -0.00174  0.01795  0.01126  0.00237  0.02204  0.00699
    C8       Z     0.01167 -0.00246  0.02078 -0.17469  0.00896 -0.00975
    C9       X     0.00890 -0.00702 -0.04582 -0.00379  0.02622  0.00068
    C9       Y     0.00978 -0.01317 -0.05701  0.00374  0.09031  0.00554
    C9       Z     0.02309 -0.00627  0.01066 -0.10723  0.01132 -0.00854
    C10      X     0.00083  0.03908 -0.03371  0.00306  0.07963  0.00726
    C10      Y     0.00846  0.00605  0.00941  0.00376 -0.01147  0.00484
    C10      Z    -0.16774  0.02596 -0.02257  0.00602 -0.00216 -0.00595
    C11      X     0.00402  0.06362 -0.00203 -0.01275 -0.04701 -0.00397
    C11      Y    -0.00001 -0.04441 -0.02401 -0.00093 -0.09227 -0.01318
    C11      Z     0.03832 -0.01228  0.00521 -0.00128 -0.00036  0.00102
    H12      X    -0.01612  0.04514 -0.03690  0.01899  0.07300  0.00733
    H12      Y     0.01795 -0.04217 -0.00842  0.01047  0.06018  0.01335
    H12      Z    -0.39331  0.05798 -0.08292  0.22058 -0.01569  0.00447
    H13      X     0.00676  0.07879 -0.04462  0.00205 -0.09273 -0.00875
    H13      Y     0.00607  0.02053 -0.00471 -0.02430 -0.08887 -0.01322
    H13      Z    -0.13132  0.01770 -0.02905  0.18568 -0.01868  0.01447
    H14      X    -0.00531  0.06764 -0.04662 -0.01099 -0.13269 -0.02161
    H14      Y     0.00915  0.02763 -0.00140 -0.00535 -0.05734  0.00114
    H14      Z    -0.13622  0.00524 -0.04791  0.09336  0.01754  0.00277
    H15      X     0.00331 -0.05180 -0.06440 -0.01162 -0.04680  0.35982
    H15      Y    -0.04049 -0.04377 -0.17378 -0.09917 -0.03737  0.35441
    H15      Z    -0.02759 -0.00355  0.02180 -0.03748  0.08203 -0.78003
  
  vibration #           13       14       15       16       17       18
                  -------- -------- -------- -------- -------- --------
  frequencies       562.06   587.18   618.91   656.49   734.77   741.40
  intensities        50.62    43.27    38.68    82.96    20.57    41.96
  reduc. mass         0.76     1.44     1.57     0.73     2.32     6.92
  force const         0.14     0.29     0.35     0.19     0.74     2.24
    O1       X     0.00523  0.04384 -0.06412  0.00046 -0.06289  0.00636
    O1       Y     0.00077  0.03439  0.03289 -0.00404 -0.05973  0.00731
    O1       Z     0.01216 -0.00241  0.00237  0.01354 -0.01278 -0.00208
    O2       X     0.00078 -0.06522  0.06124 -0.00215 -0.05307  0.01186
    O2       Y    -0.00380  0.04299  0.04643  0.00034  0.07137 -0.01098
    O2       Z     0.01236  0.00700 -0.00097  0.00280  0.01544  0.07665
    O3       X     0.00742 -0.09253 -0.02904  0.00085 -0.02977  0.00134
    O3       Y    -0.00465  0.04932  0.04167 -0.00142  0.03714 -0.00223
    O3       Z     0.00510 -0.00252  0.00003 -0.00387  0.00228 -0.00062
    N4       X    -0.00857  0.05330  0.09849 -0.00108 -0.05449  0.00726
    N4       Y     0.00345  0.03081 -0.07592 -0.00008 -0.00404 -0.00369
    N4       Z    -0.02695 -0.00426 -0.01241  0.05670 -0.00175  0.06784
    N5       X     0.00771 -0.01243 -0.07462  0.00161  0.04292  0.00048
    N5       Y    -0.00080 -0.08351  0.02101  0.00242 -0.01732  0.00188
    N5       Z     0.04111 -0.00532  0.00454 -0.02859  0.00101  0.06836
    N6       X    -0.00433  0.05243 -0.02773  0.00088  0.00271  0.00117
    N6       Y     0.00370 -0.00800 -0.03892 -0.00323 -0.03114  0.00006
    N6       Z    -0.00894 -0.02280  0.00359  0.00622 -0.00360  0.00133
    N7       X    -0.00361  0.03290 -0.02874  0.00113  0.00304  0.00109
    N7       Y    -0.00229  0.05492 -0.00652  0.00098 -0.00585  0.00082
    N7       Z    -0.01144  0.02044 -0.00838  0.00602 -0.00077  0.00202
    C8       X    -0.00288  0.00224  0.06095 -0.00223  0.08431 -0.00756
    C8       Y     0.00214 -0.09285 -0.01556  0.00288  0.00910 -0.00133
    C8       Z    -0.00433  0.00587  0.00312 -0.05620 -0.01902  0.00354
    C9       X    -0.00469  0.05689  0.10142 -0.00393 -0.02135  0.00287
    C9       Y     0.00680  0.01507 -0.07221 -0.00057 -0.06140  0.00641
    C9       Z    -0.04189  0.00509  0.00129  0.00611  0.04403  0.00852
    C10      X     0.00512 -0.03777 -0.03104  0.00561  0.17244 -0.01942
    C10      Y    -0.00162 -0.10889  0.06194  0.00031  0.00175  0.00010
    C10      Z     0.05783  0.00895  0.01092  0.02352  0.00074 -0.01269
    C11      X    -0.00067 -0.02205 -0.04246  0.00326 -0.04486 -0.01178
    C11      Y    -0.00278  0.05524 -0.01828 -0.00004  0.05122  0.00393
    C11      Z     0.00868  0.00346  0.00361  0.04646 -0.02398 -0.24858
    H12      X     0.00847 -0.04138 -0.03936  0.01257  0.17267 -0.01766
    H12      Y    -0.01019 -0.10339  0.15406 -0.00432  0.05589 -0.00525
    H12      Z     0.08486 -0.01449 -0.00099  0.10727 -0.01140  0.01342
    H13      X     0.00480  0.05370  0.09826 -0.06059 -0.05579 -0.00415
    H13      Y    -0.00484 -0.04108 -0.23372  0.05080 -0.02125  0.00619
    H13      Z     0.18975 -0.01442 -0.04005 -0.89692  0.02491 -0.11950
    H14      X    -0.06866  0.09752 -0.12617 -0.01250  0.02393 -0.00173
    H14      Y     0.01382 -0.14429  0.04726  0.00557 -0.00621  0.00020
    H14      Z    -0.91313 -0.04738 -0.03796 -0.19228 -0.02518 -0.03591
    H15      X     0.00167 -0.04713 -0.03224  0.00605 -0.01740  0.00184
    H15      Y     0.01244 -0.07586  0.03182 -0.00295  0.00016 -0.00299
    H15      Z     0.01295 -0.06918  0.00654 -0.01356 -0.01696 -0.00119
  
  vibration #           19       20       21       22       23       24
                  -------- -------- -------- -------- -------- --------
  frequencies       766.20   836.20   912.33   926.07  1013.41  1085.17
  intensities        19.22   100.27    20.88    50.63   162.08     3.05
  reduc. mass         4.97     2.39     1.18     2.20     5.47     1.83
  force const         1.72     0.99     0.58     1.11     3.31     1.27
    O1       X    -0.00859  0.01011 -0.00053  0.01172  0.00185  0.01809
    O1       Y    -0.01195 -0.00179  0.00733  0.05009  0.00528 -0.00535
    O1       Z     0.06321  0.00656 -0.00489  0.00247 -0.00145 -0.00107
    O2       X    -0.01363  0.02783 -0.00158  0.00169 -0.00358 -0.00153
    O2       Y     0.02058 -0.04570  0.00694  0.02728  0.00348  0.02782
    O2       Z    -0.00144 -0.00504 -0.00302  0.00087  0.00048  0.00140
    O3       X     0.00093 -0.07194 -0.00753  0.00351 -0.02764 -0.00665
    O3       Y     0.00359  0.08300  0.01478 -0.01373  0.09364  0.01320
    O3       Z     0.00870  0.00871  0.00441 -0.00378  0.02629  0.00489
    N4       X     0.00475 -0.06510 -0.01053 -0.08326 -0.00790  0.07319
    N4       Y    -0.00891  0.02850 -0.01511 -0.09519 -0.01211 -0.09786
    N4       Z     0.05157  0.00945 -0.00485  0.00137 -0.00058 -0.00877
    N5       X     0.00747 -0.00141  0.01817  0.12044  0.01180 -0.06261
    N5       Y    -0.01645  0.09161  0.00719  0.08844 -0.01376  0.03355
    N5       Z     0.00608  0.00157  0.01693 -0.00882 -0.00191  0.00517
    N6       X    -0.00770  0.05144  0.00943  0.00327  0.00507  0.01246
    N6       Y     0.01937 -0.13728  0.00263 -0.01061  0.09177 -0.02901
    N6       Z    -0.01155 -0.03059 -0.01091 -0.00367  0.04080 -0.01051
    N7       X    -0.00812  0.05676  0.00249 -0.00325  0.05186  0.03352
    N7       Y    -0.00779 -0.02802 -0.01873  0.02479 -0.18964 -0.01177
    N7       Z    -0.01815  0.00685 -0.00991  0.00850 -0.05414  0.00404
    C8       X     0.01905  0.04220 -0.00403 -0.03893 -0.00316 -0.07314
    C8       Y    -0.00049 -0.05019  0.00604 -0.01959  0.02300  0.02469
    C8       Z     0.12836  0.02237  0.05425 -0.00524 -0.03025  0.00333
    C9       X    -0.00820 -0.03301  0.01104  0.05510  0.00398 -0.11182
    C9       Y    -0.00482  0.02351 -0.00208  0.00067 -0.00037  0.10223
    C9       Z    -0.22388 -0.02407  0.01818 -0.00488  0.00525  0.00963
    C10      X     0.03279 -0.03200 -0.01301 -0.02619 -0.03183  0.07795
    C10      Y    -0.00518  0.03242 -0.00130 -0.02156 -0.01664 -0.05150
    C10      Z    -0.03102  0.00576 -0.14091  0.02128  0.01399 -0.00244
    C11      X    -0.01354  0.03533 -0.00958 -0.06260  0.00160  0.03358
    C11      Y     0.01165 -0.02294 -0.00047 -0.00343  0.00434  0.02737
    C11      Z     0.00932  0.00201  0.01549  0.00436 -0.00168 -0.00120
    H12      X     0.02781 -0.03823  0.06952 -0.01583 -0.03433  0.08439
    H12      Y    -0.00128  0.09410 -0.10975 -0.27010 -0.11428 -0.12063
    H12      Z    -0.10837 -0.02055  0.80974 -0.12416 -0.08866 -0.02585
    H13      X    -0.00450 -0.06625 -0.00997 -0.08761 -0.00810  0.07545
    H13      Y    -0.02618  0.14386 -0.05908 -0.36257 -0.04110 -0.27268
    H13      Z    -0.09111  0.00758  0.00995 -0.01365 -0.00345 -0.01804
    H14      X     0.01589 -0.05491  0.02040  0.17591  0.06911 -0.24363
    H14      Y    -0.01925  0.12218  0.00544  0.06553 -0.04594  0.13321
    H14      Z     0.06561  0.00135 -0.02598  0.00603  0.00155  0.01336
    H15      X    -0.00961 -0.02948 -0.01293  0.00759 -0.05534  0.01573
    H15      Y     0.03029 -0.09081  0.01000 -0.02317  0.17244 -0.07060
    H15      Z     0.02349 -0.04637  0.01469 -0.00956  0.05998 -0.02326
  
  vibration #           25       26       27       28       29       30
                  -------- -------- -------- -------- -------- --------
  frequencies      1143.45  1192.71  1283.56  1331.86  1337.95  1356.42
  intensities       123.17    16.34    95.35   248.63    18.44    63.41
  reduc. mass         0.68     2.28     1.29     1.01     1.09     1.30
  force const         0.53     1.91     1.25     1.06     1.14     1.41
    O1       X    -0.00255 -0.00052  0.01453 -0.00369  0.02459 -0.00701
    O1       Y    -0.00377 -0.00886 -0.00444 -0.01698  0.04226 -0.04631
    O1       Z    -0.00001  0.00002 -0.00140 -0.00041  0.00050 -0.00186
    O2       X    -0.00905 -0.00222  0.00996  0.00906 -0.00349  0.03794
    O2       Y    -0.00207  0.00683 -0.00327 -0.00674  0.05036 -0.03106
    O2       Z     0.00025  0.00034 -0.00077 -0.00083  0.00219 -0.00379
    O3       X     0.00136 -0.00723 -0.00718 -0.03373 -0.00101  0.01240
    O3       Y    -0.00394  0.02815 -0.00426 -0.03695 -0.00115  0.00896
    O3       Z    -0.00159  0.00967 -0.00391 -0.03351 -0.00074  0.00976
    N4       X    -0.03164  0.04334  0.03262  0.02510  0.03209  0.06073
    N4       Y    -0.08737  0.02048  0.05019  0.00995 -0.12025  0.05578
    N4       Z    -0.00209 -0.00125  0.00023 -0.00094 -0.00773 -0.00142
    N5       X     0.01077  0.05234  0.06594 -0.00266  0.00447 -0.00645
    N5       Y    -0.03819 -0.08295  0.02044 -0.01023  0.02897  0.04068
    N5       Z    -0.00142 -0.00659 -0.00333  0.00003  0.00065  0.00127
    N6       X    -0.00440  0.00572  0.01562  0.10683  0.00016 -0.04153
    N6       Y    -0.00177 -0.08600  0.03440 -0.05550  0.00515  0.03006
    N6       Z    -0.00013 -0.02689  0.00867  0.02423 -0.00025 -0.00492
    N7       X    -0.00635  0.04848  0.00432 -0.04012  0.00345 -0.00064
    N7       Y     0.00724 -0.01642 -0.01705  0.01859 -0.00078  0.00289
    N7       Z     0.00133  0.01363 -0.00569 -0.00470  0.00063  0.00009
    C8       X     0.05287 -0.11897 -0.09704  0.02086 -0.00101  0.10925
    C8       Y     0.00611  0.12671 -0.11661  0.04161 -0.01500 -0.03778
    C8       Z     0.00031  0.01400 -0.00064  0.00123 -0.00068 -0.00663
    C9       X    -0.05432  0.00749 -0.01804 -0.03577 -0.03994 -0.08445
    C9       Y     0.05351 -0.00171  0.01465  0.03258  0.00640  0.07434
    C9       Z     0.00516 -0.00245  0.00419  0.00268  0.00296  0.00889
    C10      X    -0.05419 -0.00582  0.04582 -0.01062  0.01322 -0.01192
    C10      Y     0.02082  0.09500 -0.00170  0.02973 -0.01728  0.00197
    C10      Z    -0.00006  0.00732 -0.00766  0.00419 -0.00231 -0.00031
    C11      X     0.08477 -0.06763 -0.08215 -0.03425 -0.06689 -0.12343
    C11      Y     0.06807 -0.03059 -0.04396 -0.00867 -0.05665 -0.03881
    C11      Z    -0.00096  0.00320  0.00315  0.00213  0.00273  0.00668
    H12      X    -0.09795 -0.00325  0.00924  0.00597  0.00798  0.00699
    H12      Y     0.52925  0.03548  0.58697 -0.18650  0.09069 -0.18928
    H12      Z     0.04589 -0.02939  0.04345 -0.02567  0.00767  0.00286
    H13      X    -0.03428  0.04460  0.03342  0.02579  0.03465  0.06298
    H13      Y    -0.23552 -0.04247 -0.15295 -0.05869  0.70678 -0.17586
    H13      Z    -0.00861 -0.00520 -0.00979 -0.00417  0.03097 -0.01232
    H14      X     0.38879  0.18140 -0.10250  0.11552  0.21662  0.32039
    H14      Y    -0.24673 -0.15870  0.11806 -0.07702 -0.08473 -0.13714
    H14      Z    -0.03870 -0.02051  0.01470 -0.01046 -0.01775 -0.02238
    H15      X    -0.00170  0.05650 -0.05738 -0.22345 -0.00871  0.07087
    H15      Y     0.00742 -0.21455  0.17460  0.66680  0.02648 -0.20690
    H15      Z     0.00209 -0.07400  0.06108  0.21122  0.00928 -0.06687
  
  vibration #           31       32       33       34       35       36
                  -------- -------- -------- -------- -------- --------
  frequencies      1433.14  1533.69  1571.17  1673.08  1694.56  3057.17
  intensities       110.12    23.93   111.62   733.03   800.78     2.70
  reduc. mass         1.83     4.13     3.39     5.51     5.22     0.93
  force const         2.21     5.73     4.93     9.08     8.82     5.12
    O1       X    -0.00056 -0.00126 -0.02080  0.07697 -0.02014 -0.00007
    O1       Y     0.01421 -0.00048 -0.02132  0.10766 -0.03170 -0.00012
    O1       Z     0.00074  0.00007  0.00037  0.00058 -0.00030 -0.00001
    O2       X     0.03461  0.00267  0.00705 -0.01289 -0.06042 -0.00015
    O2       Y    -0.05235 -0.00014 -0.00013  0.02148  0.10736  0.00009
    O2       Z    -0.00452 -0.00027 -0.00056  0.00168  0.00816  0.00003
    O3       X    -0.00225  0.01396 -0.00422 -0.00093  0.00091  0.00009
    O3       Y    -0.00062  0.02735 -0.00795 -0.00001 -0.00163  0.00012
    O3       Z    -0.00072  0.01770 -0.00671 -0.00085 -0.00025  0.00003
    N4       X    -0.02182  0.00430  0.00955  0.01325 -0.00829 -0.00006
    N4       Y     0.02849  0.00548  0.02312  0.03583  0.03679 -0.00020
    N4       Z     0.00261  0.00003  0.00054  0.00072  0.00218 -0.00000
    N5       X    -0.12053  0.00795  0.02485 -0.00196 -0.02932  0.00158
    N5       Y     0.08300  0.01095  0.03891  0.00452  0.03107 -0.00052
    N5       Z     0.01122  0.00053 -0.00089  0.00011  0.00318 -0.00025
    N6       X     0.00915  0.14517 -0.03315 -0.00543  0.00263 -0.00057
    N6       Y    -0.00207 -0.00289 -0.02246 -0.00586  0.00229 -0.00008
    N6       Z     0.00015  0.05851 -0.01684 -0.00277  0.00154 -0.00010
    N7       X     0.00861 -0.15705  0.04337  0.00225 -0.00225  0.00016
    N7       Y    -0.00476 -0.01675  0.00793  0.00285  0.00085  0.00010
    N7       Z     0.00007 -0.06959  0.02123  0.00269 -0.00086  0.00012
    C8       X    -0.09034 -0.00154  0.04719  0.03125 -0.00912  0.00230
    C8       Y     0.01157  0.04264  0.15103  0.02543 -0.00774  0.00366
    C8       Z     0.00412 -0.00111  0.00332  0.00041 -0.00034 -0.00015
    C9       X     0.05859 -0.00325  0.02564 -0.14406  0.03563  0.00021
    C9       Y    -0.05251 -0.00039  0.00202 -0.16918  0.04284  0.00034
    C9       Z    -0.00610 -0.00053 -0.00285  0.00042 -0.00027  0.00001
    C10      X     0.09231 -0.00701 -0.04352 -0.00298  0.00534 -0.08354
    C10      Y    -0.05241 -0.04881 -0.18455 -0.00892 -0.00198 -0.00959
    C10      Z    -0.00808  0.00015 -0.00235  0.00014 -0.00047  0.00654
    C11      X    -0.00150 -0.01492 -0.04026  0.01900  0.10284  0.00116
    C11      Y     0.03859 -0.00737 -0.02441 -0.04564 -0.19644 -0.00016
    C11      Z     0.00289  0.00091  0.00219 -0.00292 -0.01422 -0.00016
    H12      X     0.09594 -0.02359 -0.09963 -0.00569  0.00630  0.94605
    H12      Y     0.05083  0.10534  0.27797  0.00925 -0.00755  0.08153
    H12      Z    -0.00598 -0.01352  0.01428  0.00177 -0.00133 -0.07270
    H13      X    -0.02131  0.00465  0.01061  0.01420 -0.00914  0.00184
    H13      Y    -0.03818  0.00244 -0.00245 -0.20547 -0.12656 -0.00018
    H13      Z    -0.00135 -0.00022 -0.00069 -0.01057 -0.00551 -0.00010
    H14      X     0.45851 -0.02221 -0.08457  0.03319  0.17788 -0.00868
    H14      Y    -0.23011  0.02815  0.10135 -0.01755 -0.08102 -0.00428
    H14      Z    -0.04211  0.00171  0.00581 -0.00283 -0.01648  0.00128
    H15      X    -0.01045  0.11043 -0.03057 -0.00351  0.00163 -0.00057
    H15      Y     0.03075 -0.34962  0.09577  0.00840 -0.00061 -0.00015
    H15      Z     0.01093 -0.11233  0.03029  0.00202  0.00073 -0.00054
  
  vibration #           37       38       39
                  -------- -------- --------
  frequencies      3411.10  3439.50  3597.59
  intensities       100.55   146.02   163.43
  reduc. mass         0.94     0.94     0.95
  force const         6.45     6.55     7.23
    O1       X    -0.00026 -0.00020  0.00007
    O1       Y    -0.00018 -0.00020  0.00005
    O1       Z     0.00001  0.00001  0.00000
    O2       X    -0.00026 -0.00003  0.00008
    O2       Y     0.00028  0.00032 -0.00011
    O2       Z     0.00003  0.00001 -0.00002
    O3       X    -0.00005 -0.00017 -0.05413
    O3       Y    -0.00007 -0.00016 -0.00422
    O3       Z    -0.00006 -0.00015 -0.02728
    N4       X    -0.07040 -0.00112  0.00014
    N4       Y    -0.00048 -0.00031 -0.00002
    N4       Z     0.00437  0.00006 -0.00001
    N5       X     0.00036  0.03372  0.00007
    N5       Y    -0.00056  0.06265 -0.00044
    N5       Z    -0.00002 -0.00164 -0.00004
    N6       X     0.00006 -0.00003  0.00059
    N6       Y     0.00000  0.00012 -0.00007
    N6       Z     0.00000  0.00007  0.00015
    N7       X    -0.00004 -0.00003 -0.00058
    N7       Y     0.00005  0.00013 -0.00065
    N7       Z     0.00001 -0.00001 -0.00056
    C8       X     0.00029 -0.00054  0.00003
    C8       Y    -0.00022 -0.00121 -0.00005
    C8       Z    -0.00003 -0.00007  0.00009
    C9       X     0.00049  0.00057 -0.00016
    C9       Y    -0.00023  0.00017 -0.00009
    C9       Z    -0.00005 -0.00005 -0.00003
    C10      X     0.00019  0.00112 -0.00008
    C10      Y     0.00031 -0.00124  0.00027
    C10      Z     0.00000 -0.00013  0.00006
    C11      X     0.00052 -0.00060 -0.00025
    C11      Y     0.00044  0.00003  0.00011
    C11      Z    -0.00001  0.00002  0.00002
    H12      X    -0.00161 -0.00726  0.00086
    H12      Y    -0.00007  0.00059  0.00019
    H12      Z     0.00010  0.00073  0.00000
    H13      X     0.95878  0.00984 -0.00139
    H13      Y     0.00054 -0.00030 -0.00007
    H13      Z    -0.05964 -0.00064  0.00009
    H14      X     0.00572 -0.45856  0.00208
    H14      Y     0.00907 -0.84297  0.00353
    H14      Z    -0.00034  0.02389 -0.00018
    H15      X     0.00123  0.00373  0.85777
    H15      Y     0.00018  0.00034  0.07774
    H15      Z     0.00065  0.00197  0.43776
  
  Number of imaginary frequencies:   0
   
  Writing vibrational animation data to 20116_isomer1.vib
  Writing IR vibrational spectrum data to 20116_isomer1_vib.spm
  rotational symmetry number:  1

  rotational temperatures (K):      0.124510      0.031805      0.025451
   
  The Quasi-Harmonic approximation will be applied to compute
  vibrational constributions to thermodynamic properties.
  Frequencies will be adjusted to a minimum value of  100.00 cm^-1.

  vibrational temperatures:
       mode:      1        2        3        4        5        6
  temp. (K):   155.12   222.49   249.51   290.58   367.19   455.42
   
       mode:      7        8        9       10       11       12
  temp. (K):   543.49   566.12   589.83   660.58   741.38   761.89
   
       mode:     13       14       15       16       17       18
  temp. (K):   808.68   844.82   890.47   944.54  1057.17  1066.71
   
       mode:     19       20       21       22       23       24
  temp. (K):  1102.39  1203.10  1312.63  1332.40  1458.07  1561.32
   
       mode:     25       26       27       28       29       30
  temp. (K):  1645.16  1716.04  1846.76  1916.25  1925.01  1951.59
   
       mode:     31       32       33       34       35       36
  temp. (K):  2061.96  2206.63  2260.55  2407.18  2438.09  4398.58
   
       mode:     37       38       39
  temp. (K):  4907.80  4948.67  5176.12
   
   
  Thermodynamic properties calculated assuming an ideal gas

  In the table below, the units for temperature
  are kelvins, the units for U, H, and G are
  kcal/mol and the units for Cv and S are cal/(mol K)

  The zero point energy (ZPE):     60.602 kcal/mol
  is not included in U, H, or G in the table below
  
 
  =============================================================================
  Thermodynamic properties for P = 1.00E+00 atm, calculated at   1 temperatures


  T =   298.15 K, P = 1.00E+00 atm
   
                  U         Cv          S          H          G        ln(Q)
              =========  =========  =========  =========  =========  =========
  trans.          0.889      2.981     41.046      1.481    -10.757   18.15488
  rot.            0.889      2.981     30.245      0.889     -8.129   13.72001
  vib.            3.927     28.936     21.766      3.927     -2.562    4.32454
  elec.           0.000      0.000      0.000      0.000      0.000    0.00000
  ----------------------------------------------------------------------------
  total           5.705     34.898     93.057      6.297    -21.448   36.19943
   
   Total internal energy, Utot(SCFE + ZPE + U):    -599.348583 hartrees
   Total enthalpy, Htot (Utot + nRT), with n=1:    -599.347639 hartrees
    Total Gibbs free energy, Gtot (Htot - T*S):    -599.391853 hartrees
   
  end of program freq
   
 Time(freq)  user:        1.9  user+sys:        1.9  wallclock:        1.1

 Total cpu seconds     user:   23906.442   user+sys:   23906.442
  
 Total elapsed time:    6431 seconds

Job 20116_isomer1 completed on vm-linux2 at Tue Jan 28 15:30:50 2025
