Job 20116_single_point_water started on vm-linux1 at Mon Jan 20 12:59:40 2025
jobid: vm-linux1-0-678e2c9a

  +--------------------------------------------------------------------+
  |  Jaguar version 11.2, release 117                                  |
  |                                                                    |
  |  Copyright Schrodinger, Inc.                                       |
  |  All Rights Reserved.                                              |
  |                                                                    |
  |  The following have contributed to Jaguar (listed alphabetically): |
  |  Mike Beachy, Art Bochevarov, Dale Braden, Yixiang Cao,            |
  |  Alan Chien, Chris Cortis, Rich Friesner, Bill Goddard,            |
  |  Hod Greeley, Tom Hughes, Leif Jacobson, Jean-Marc Langlois,       |
  |  Daniel Levine, Daniel Mainz, Rob Murphy, Dean Philipp,            |
  |  Tom Pollard, Murco Ringnalda, Mark Watson, Haoyu Yu.              |
  |                                                                    |
  |  Use of this program should be acknowledged in publications as:    |
  |                                                                    |
  |  Jaguar, version 11.2, Schrodinger, Inc., New York, NY, 2021.      |
  |                                                                    |
  |  A. D. Bochevarov, E. Harder, T. F. Hughes, J. R. Greenwood,       |
  |  D. A. Braden, D. M. Philipp, D. Rinaldo, M. D. Halls,             |
  |  J. Zhang, R. A. Friesner, "Jaguar: A High-Performance Quantum     |
  |  Chemistry Software Program with Strengths in Life and Materials   |
  |  Sciences", Int. J. Quantum Chem., 2013, 113(18), 2110-2142.       |
  +--------------------------------------------------------------------+
  
  start of program pre
  
  Job name: 20116_single_point_water
  Executables used: /mnt/Data_3/SCHRODINGER_2021-2/jaguar-v11.2/bin/Linux-x86_64
  Temporary files : /mnt/Data_3/SCHRODINGER_2021-2_TMP/vm/20116_single_point_water#vm-linux1-0-678e2c9a
  Maestro file (input):  20116_single_point_water.mae
  Maestro file (output): 20116_single_point_water.01.mae
  
 Contents of input file: &gen section only
 ----------------Contents start----------------
&gen
iplotesp=1
isolv=2
basis=6-311G++**
icfit=1
dftname=B3LYP-D3
nogas=0
iorb2a=lumo+0
ipolar=-1
iplotden=1
iorb1a=homo-0
&
 -----------------Contents end-----------------
 
  basis set:             6-311g++**                      
  net molecular charge:    0
  multiplicity:            1
  
  Using up to   8 threads per process
  
  number of basis functions....          270
  Project from guess basis.. 6-31g**                         
  to current basis set ..... 6-311g++**                      
  
 Current basis set is different from that used 
 to obtain the input wave function.
 Another SCF will be run to converge the 
 wave function using the new basis.
  
 Input geometry:
                                   angstroms
  atom               x                 y                 z
  O1           -1.8172850000     -1.4687530000     -0.0611960000 
  O2           -1.7465100000      3.1123850000      0.1437850000 
  O3            2.7554820000     -2.8415650000     -0.1109530000 
  N4           -1.7434900000      0.8112660000      0.0440660000 
  N5            0.2460060000      1.9894000000     -0.0301770000 
  N6            1.0003990000     -1.6269320000     -0.2770570000 
  N7            2.1527930000     -1.6226710000      0.1815400000 
  C8            0.3311190000     -0.3946850000     -0.1236760000 
  C9           -1.1390800000     -0.4608140000     -0.0549480000 
  C10           0.9478330000      0.8172460000     -0.1177380000 
  C11          -1.1457780000      2.0587500000      0.0629690000 
  H12           2.0247940000      0.9022000000     -0.1975660000 
  H13          -2.7543740000      0.8108190000      0.1068700000 
  H14           0.7152110000      2.8834020000     -0.0546520000 
  H15           3.6139320000     -2.7563290000      0.3315090000 
   
  principal moments of inertia:
        amu*angstrom^2:      194.72172      762.33634      952.67193
                g*cm^2: 3.23342980E-38 1.26588911E-37 1.58194875E-37
   
  rotational constants:
               cm^(-1):      0.08657293      0.02211311      0.01769510
                   GHz:      2.59539106      0.66293443      0.53048588
   
  Molecular weight:     156.03 amu
   
  Stoichiometry: C4N4H4O3
[running at reduced cpu priority]
  Molecular Point Group: C1      
  Point Group used: C1
  
  nuclear repulsion energy.......     588.765252531 hartrees
 
 Non-default options chosen:
   HF Initial guess: read from Jaguar .in file
   SCF calculation type: DFT(b3lyp-d3)               
   DFT=Becke_3_Parameter/HF+Slater+Becke88+VWN+LYP (B3LYP-D3)
   Solvation energy will be computed using PBF
   (Hyper)polarizabilities will be computed via CPHF/CPKS equations
   Electrostatic potential fit to point charges on atomic centers
   Molecular orbitals will be written to .vis files
   Electron density will be written to .vis file
   Molecular electrostatic potential will be written to .vis file
   Solvent: water                                                           
   Internal dielectric constant:    1.000
   Continuum dielectric constant:  80.370
   Solvent probe molecule radius:   1.400
  
 Temporary integer options set:
     73=  2
  
  atom       vdw   vdw2    cov     mass  grid  daf  charge   basis
  O1        1.702  1.550  0.730   15.995    Y    Y      Y    6-311++g**
  O2        1.702  1.550  0.730   15.995    Y    Y      Y    6-311++g**
  O3        1.702  1.450  0.730   15.995    Y    Y      Y    6-311++g**
  N4        1.831  1.500  0.750   14.003    Y    Y      Y    6-311++g**
  N5        1.831  1.500  0.750   14.003    Y    Y      Y    6-311++g**
  N6        1.831  1.500  0.750   14.003    Y    Y      Y    6-311++g**
  N7        1.831  1.500  0.750   14.003    Y    Y      Y    6-311++g**
  C8        1.949  2.000  0.770   12.000    Y    Y      Y    6-311++g**
  C9        1.949  2.000  0.770   12.000    Y    Y      Y    6-311++g**
  C10       1.949  2.000  0.770   12.000    Y    Y      Y    6-311++g**
  C11       1.949  2.000  0.770   12.000    Y    Y      Y    6-311++g**
  H12       1.597  1.250  0.320    1.008    Y    Y      Y    6-311++g**
  H13       1.597  1.150  0.320    1.008    Y    Y      Y    6-311++g**
  H14       1.597  1.150  0.320    1.008    Y    Y      Y    6-311++g**
  H15       1.597  1.150  0.320    1.008    Y    Y      Y    6-311++g**
  
  end of program pre
   
 Time(pre)  user:        4.3  user+sys:        4.3  wallclock:        1.2
  
  start of program onee
  
  smallest eigenvalue of S:    5.955E-06
  number of canonical orbitals.....          263
  end of program onee
   
 Time(onee)  user:        0.9  user+sys:        0.9  wallclock:        0.1
  
  start of program hfig
  
  initial wavefunction read from .in file
  reading wavefunction from input file
  Project from guess basis.. 6-31g**                         
  to current basis set ..... 6-311g++**                      
          50  orbitals read from .in file
  Largest Normalization error   4.247664485057534E-003
  RMS Normalization error   2.541244788150214E-004
  warning: unnormalized input orbitals:           33
  warning: nonorthogonal input orbital pairs:           32
  end of program hfig
   
 Time(hfig)  user:        1.0  user+sys:        1.0  wallclock:        0.1
  
  start of program probe
  
  end of program probe
   
 Time(probe)  user:        0.6  user+sys:        0.6  wallclock:        0.1
  
  start of program grid
  
   grid     grid set  grid #  grid sym
  ------    --------  ------  --------
  coarse        0        0        1
  medium        2        1        1
  fine          0        0        1
  ultrafine     4        2        1
  charge       -1        3        1
  gradient      4        2        1
  density       0        0        1
  DFT-fine    -11        4        1
  DFT-med.    -10        5        1
  DFT-grad    -12        6        1
  DFT-der2      0        0        1
  DFT-cphf     -9        7        1
  LMP2-enrg     4        2        1
  LMP2-grad     2        1        1
  DFT-cphf2   -15        8        1
  PBF-dens      0        0        1
  plotting     -7        9        1
  Rel-grad    -17        0        1
  
  number of gridpoints: 
     atom        O1       O2       O3       N4       N5       N6       N7
  grid # 1      243      243      210      179      177      213      211
  grid # 2      510      511      437      346      341      426      418
  grid # 3      365      369      233       54       52      153      110
  grid # 4     5282     5282     5282     5282     5282     5282     5282
  grid # 5     2128     2128     2128     2128     2128     2128     2128
  grid # 6     5374     5374     5374     5374     5374     5374     5374
  grid # 7      736      736      736      734      734      734      734
  grid # 8      394      394      394      388      388      388      388
   
  number of gridpoints: 
     atom        C8       C9      C10      C11      H12      H13      H14
  grid # 1      187      183      172      180      154      155      155
  grid # 2      360      354      336      349      318      315      318
  grid # 3       57       56       50       55      353      399      401
  grid # 4     5282     5282     5282     5282     5282     5282     5282
  grid # 5     2128     2128     2128     2128     2128     2128     2128
  grid # 6     5374     5374     5374     5374     5374     5374     5374
  grid # 7      734      734      734      734      782      782      782
  grid # 8      388      388      388      388      406      406      406
   
  number of gridpoints: 
     atom       H15    total
  grid # 1      154     2816
  grid # 2      321     5660
  grid # 3      490     3197
  grid # 4     5282    79230
  grid # 5     2128    31920
  grid # 6     5374    80610
  grid # 7      782    11208
  grid # 8      406     5910
   
  end of program grid
   
 Time(grid)  user:        1.5  user+sys:        1.5  wallclock:        0.2
  
  start of program rwr
  
  end of program rwr
   
 Time(rwr)  user:        4.4  user+sys:        4.4  wallclock:        0.6
  
  start of program scf
  
 number of electrons..........         80
 number of alpha electrons....         40
 number of beta electrons.....         40
 number of orbitals, total....        263
 number of doubly-occ'd orbs..         40
 number of open shell orbs....          0
 number of occupied orbitals..         40
 number of virtual orbitals...        223
 number of hamiltonians.......          1
 number of shells.............          1
 SCF type: DFT=Becke_3_Parameter/HF+Slater+Becke88+VWN+LYP (B3LYP-D3)
 Energy computed with NOPS off.
 Convergence Criterion:
    Energy (econv):       1.00E-06
    RMS density (dconv):  5.00E-06
  
       i  u  d  i  g                   
       t  p  i  c  r                                 RMS    maximum
       e  d  i  u  i                       energy  density   DIIS  
       r  t  s  t  d       total energy    change  change    error 
  
etot    1  N  N  5  M    -599.58306199024           2.7E-03  7.0E-02
etot    2  Y  Y  6  M    -599.63679873621  5.4E-02  1.1E-03  1.6E-02
etot    3  N  Y  2  U    -599.64014927790  3.4E-03  1.1E-03  3.0E-03
etot    4  Y  Y  6  M    -599.64093444301  7.9E-04  7.0E-04  1.7E-03
etot    5  N  Y  2  U    -599.64100020795  6.6E-05  4.9E-04  1.9E-03
etot    6  Y  Y  6  M    -599.64119285975  1.9E-04  2.5E-05  3.5E-04
etot    7  N  Y  2  U    -599.64119901234  6.2E-06  3.9E-05  1.4E-04
etot    8  N  Y  2  U    -599.64120082218  1.8E-06  4.1E-05  4.5E-05
etot    9  N  Y  2  U    -599.64120159797  7.8E-07  1.6E-05  3.0E-05
etot   10  N  Y  2  U    -599.64120173556  1.4E-07  4.6E-06  1.6E-05
etot   11  N  N  2  U    -599.64120179526  6.0E-08  0.0E+00  0.0E+00
 
  Computing the dispersion energy correction...
  
  
 Energy components, in hartrees:
   (A)  Nuclear repulsion............     588.76525253081
   (E)  Total one-electron terms.....   -1984.62739870987
   (F)    Electron-nuclear...........   -2582.14386246794
   (H)    Kinetic....................     597.51646375807
   (I)  Total two-electron terms.....     796.22094438380
   (J)    Coulomb....................     872.84998825071
   (K)    Exchange+Correlation.......     -76.62904386691
   (L)  Electronic energy............   -1188.40645432607  (E+I)
   (M)  -V/T.........................       2.00355594894  (-(A+F+I)/H)
   (N0) D3 correction................      -0.01033329390
   (N)  Total energy.................    -599.65153508916  (A+L+N0)
   (O)  Gas phase energy.............    -599.65153508916
  
 SCFE: SCF energy: DFT(b3lyp-d3)      -599.65153508916 hartrees   iterations:  11
  
 
 HOMO energy:    -0.26223
 LUMO energy:    -0.09680
 
  Orbital energies (hartrees): 
   -19.20073   -19.12943   -19.12203   -14.44800   -14.41150   -14.38983
   -14.38973   -10.34904   -10.31494   -10.27909   -10.24852    -1.15630
    -1.10523    -1.07192    -1.02049    -1.00650    -0.95371    -0.83527
    -0.73774    -0.69393    -0.68972    -0.60189    -0.59521    -0.55326
    -0.53669    -0.52430    -0.50829    -0.49364    -0.47744    -0.46156
    -0.44504    -0.43193    -0.41480    -0.39365    -0.34435    -0.32379
    -0.31260    -0.29715    -0.29082    -0.26223    -0.09680    -0.05186
    -0.02927    -0.01685    -0.01166     0.00345     0.02366     0.03090
     0.03206     0.05601
 
  end of program scf
   
 Time(scf)  user:       40.3  user+sys:       40.3  wallclock:        6.0
  
  start of program ch
  
  gridpoints used for charge fit         3046
    out of a possible maximum of         3197
  
   Electrostatic potential fitting constrained to reproduce
     total charge:                yes
     dipole moment:               no 
     traceless quadrupole moment: no 
     traceless octupole moment:   no 
  
  Atomic charges from electrostatic potential: 
   
 Atom       O1           O2           O3           N4           N5      
 Charge   -0.50689     -0.54373     -0.35408     -0.39881     -0.32715
   
 Atom       N6           N7           C8           C9           C10     
 Charge   -0.12912     -0.08048      0.20348      0.47479     -0.15059
   
 Atom       C11          H12          H13          H14          H15     
 Charge    0.58104      0.17885      0.33059      0.34026      0.38184
  
  sum of atomic charges:    -0.000000
   
 RMS Error   2.34E-03 hartrees
 
  end of program ch
   
 Time(ch)  user:        4.5  user+sys:        4.5  wallclock:        1.3
  
  start of program post
  
  Writing input files for PBF
  end of program post
   
 Time(post)  user:        2.5  user+sys:        2.5  wallclock:        1.0

  start of program pbf

Pbf Version 4.10

Molecular surface area:      148.45410   [A2]
Reaction field energy:       -37.58632   [kT]

Solvent-accessible surface area:  312.67332 [A2]
Cavity energy:                      4.41004 [kT]

  Peak memory usage: 480 Mb

  end of program pbf

 Time(pbf)  user:        0.1  user+sys:        0.2  wallclock:        0.2
  
  start of program solv
  
   number of surface charges from PBF    1846
   sum of surface charges      0.00007
   
  nuclear repulsion energy.......     588.765252531 hartrees
  end of program solv
   
 Time(solv)  user:        0.7  user+sys:        0.7  wallclock:        0.1
  
  start of program scf
  
 Energy computed with NOPS off.
 Convergence Criterion:
    Energy (econv):       1.00E-06
    RMS density (dconv):  5.00E-06
  
       i  u  d  i  g                   
       t  p  i  c  r                                 RMS    maximum
       e  d  i  u  i                       energy  density   DIIS  
       r  t  s  t  d       total energy    change  change    error 
  
etot    1  N  N  2  U    -599.70854536232           1.1E-03  8.6E-03
etot    2  Y  Y  6  M    -599.70966909836  1.1E-03  2.9E-04  1.1E-02
etot    3  Y  Y  6  M    -599.71564915381  6.0E-03  8.9E-05  2.9E-03
etot    4  N  Y  2  U    -599.71587979043  2.3E-04  5.0E-05  7.1E-04
etot    5  N  Y  2  U    -599.71590758842  2.8E-05  2.8E-05  3.8E-04
etot    6  N  Y  2  U    -599.71591979025  1.2E-05  9.3E-06  1.6E-04
etot    7  N  Y  2  U    -599.71592111289  1.3E-06  3.7E-06  7.3E-05
etot    8  N  N  2  U    -599.71592139245  2.8E-07  0.0E+00  0.0E+00
 
  Computing the dispersion energy correction...
  
  
 Energy components, in hartrees:
   (A)  Total zero-electron terms....     588.89181534225
   (B)    Nuclear-nuclear............     588.76525253081
   (C)    Nuclear-solvent............       0.12656281144
   (E)  Total one-electron terms.....   -1984.88161667060
   (F)    Electron-nuclear...........   -2582.16364175781
   (G)    Electron-solvent...........      -0.20862868792
   (H)    Kinetic....................     597.49065377513
   (I)  Total two-electron terms.....     796.27387993589
   (J)    Coulomb....................     872.91470641952
   (K)    Exchange+Correlation.......     -76.64082648362
   (L)  Electronic energy............   -1188.60773673470  (E+I)
   (N0) D3 correction................      -0.01033329390
   (N)  Total quantum mech. energy...    -599.72625468635  (A+L+N0)
   (O)  Gas phase energy.............    -599.65153508916
   (P)  Solution phase energy........    -599.68105994542  (Q+R+S+T)
   (Q)    Total solute energy........    -599.64418880987  (N-C-G)
   (R)    Total solvent energy.......      -0.04103293824  (C/2+G/2)
   (S)    Solute cavity energy.......       0.00416180269
   (T)    First shell corr. factor...       0.00000000000
   (U)  Reorganization energy........       0.00734627929  (Q-O)
   (V)  Solvation energy.............      -0.02952485626  (P-O)
  
 SCFE:  Solution phase energy: DFT(b3lyp-d3)       -599.68105994542 hartrees
        SCF iterations:   8
  
 
 HOMO energy:    -0.26268
 LUMO energy:    -0.09722
 
  Orbital energies (hartrees): 
   -19.20106   -19.13597   -19.13034   -14.45076   -14.40358   -14.39446
   -14.38743   -10.35193   -10.32128   -10.27407   -10.24599    -1.15978
    -1.10849    -1.08095    -1.02189    -1.00424    -0.94982    -0.83340
    -0.73442    -0.69323    -0.68259    -0.60043    -0.59057    -0.54811
    -0.53508    -0.52241    -0.50666    -0.50038    -0.48381    -0.47367
    -0.45085    -0.43753    -0.41822    -0.39256    -0.34876    -0.33300
    -0.31763    -0.30563    -0.30000    -0.26268    -0.09722    -0.05515
    -0.01445    -0.00990    -0.00094     0.00956     0.03125     0.03803
     0.03979     0.05283
 
  end of program scf
   
 Time(scf)  user:       27.0  user+sys:       27.0  wallclock:        4.2
  
  start of program sole
  
    SCRF                   solvation energy
  iteration          Hartrees            kcal/mol
     0               0.0000000            0.0000
     1              -0.0295249          -18.5271
  
  solvation energy not yet converged... 
  
  end of program sole
   
 Time(sole)  user:        0.3  user+sys:        0.3  wallclock:        0.1
  
  start of program ch
  
  gridpoints used for charge fit         3046
    out of a possible maximum of         3046
  
   Electrostatic potential fitting constrained to reproduce
     total charge:                yes
     dipole moment:               no 
     traceless quadrupole moment: no 
     traceless octupole moment:   no 
  
  Atomic charges from electrostatic potential: 
   
 Atom       O1           O2           O3           N4           N5      
 Charge   -0.61772     -0.64796     -0.43075     -0.44767     -0.37263
   
 Atom       N6           N7           C8           C9           C10     
 Charge   -0.19874     -0.05282      0.19456      0.55889     -0.10048
   
 Atom       C11          H12          H13          H14          H15     
 Charge    0.68182      0.20577      0.38078      0.39563      0.45132
  
  sum of atomic charges:     0.000000
   
 RMS Error   2.35E-03 hartrees
 
  end of program ch
   
 Time(ch)  user:        4.5  user+sys:        4.5  wallclock:        1.3
  
  start of program post
  
  Writing input files for PBF
  end of program post
   
 Time(post)  user:        2.5  user+sys:        2.5  wallclock:        1.0

  start of program pbf

Pbf Version 4.10

Molecular surface area:      148.45410   [A2]
Reaction field energy:       -56.99312   [kT]

Solvent-accessible surface area:  312.67332 [A2]
Cavity energy:                      4.41004 [kT]

  Peak memory usage: 480 Mb

  end of program pbf

 Time(pbf)  user:        0.1  user+sys:        0.2  wallclock:        0.2
  
  start of program solv
  
   number of surface charges from PBF    1846
   sum of surface charges      0.00010
   
  nuclear repulsion energy.......     588.765252531 hartrees
  end of program solv
   
 Time(solv)  user:        0.7  user+sys:        0.7  wallclock:        0.1
  
  start of program scf
  
 Energy computed with NOPS off.
 Convergence Criterion:
    Energy (econv):       1.00E-06
    RMS density (dconv):  5.00E-06
  
       i  u  d  i  g                   
       t  p  i  c  r                                 RMS    maximum
       e  d  i  u  i                       energy  density   DIIS  
       r  t  s  t  d       total energy    change  change    error 
  
etot    1  N  N  2  U    -599.73513854214           3.1E-04  2.3E-03
etot    2  Y  Y  6  M    -599.73508087419 -5.8E-05  9.5E-05  3.7E-03
etot    3  Y  Y  6  M    -599.73575890055  6.8E-04  2.6E-05  5.7E-04
etot    4  N  Y  2  U    -599.73568910043 -7.0E-05  1.1E-05  2.2E-04
etot    5  N  Y  2  U    -599.73569243510  3.3E-06  7.3E-06  1.5E-04
etot    6  N  Y  2  U    -599.73569359695  1.2E-06  2.1E-06  5.2E-05
etot    7  N  N  2  U    -599.73569369776  1.0E-07  0.0E+00  0.0E+00
 
  Computing the dispersion energy correction...
  
  
 Energy components, in hartrees:
   (A)  Total zero-electron terms....     588.91934230643
   (B)    Nuclear-nuclear............     588.76525253081
   (C)    Nuclear-solvent............       0.15408977562
   (E)  Total one-electron terms.....   -1984.93649089470
   (F)    Electron-nuclear...........   -2582.16162638923
   (G)    Electron-solvent...........      -0.26031543226
   (H)    Kinetic....................     597.48545092679
   (I)  Total two-electron terms.....     796.28145489051
   (J)    Coulomb....................     872.92464258363
   (K)    Exchange+Correlation.......     -76.64318769311
   (L)  Electronic energy............   -1188.65503600419  (E+I)
   (N0) D3 correction................      -0.01033329390
   (N)  Total quantum mech. energy...    -599.74602699165  (A+L+N0)
   (O)  Gas phase energy.............    -599.65153508916
   (P)  Solution phase energy........    -599.68875236065  (Q+R+S+T)
   (Q)    Total solute energy........    -599.63980133501  (N-C-G)
   (R)    Total solvent energy.......      -0.05311282832  (C/2+G/2)
   (S)    Solute cavity energy.......       0.00416180269
   (T)    First shell corr. factor...       0.00000000000
   (U)  Reorganization energy........       0.01173375415  (Q-O)
   (V)  Solvation energy.............      -0.03721727149  (P-O)
  
 SCFE:  Solution phase energy: DFT(b3lyp-d3)       -599.68875236065 hartrees
        SCF iterations:   7
  
 
 HOMO energy:    -0.26259
 LUMO energy:    -0.09728
 
  Orbital energies (hartrees): 
   -19.20181   -19.13671   -19.13323   -14.45147   -14.40105   -14.39640
   -14.38726   -10.35189   -10.32335   -10.27232   -10.24528    -1.16109
    -1.10884    -1.08388    -1.02274    -1.00307    -0.94883    -0.83302
    -0.73350    -0.69322    -0.68098    -0.60016    -0.58948    -0.54805
    -0.53389    -0.52205    -0.50622    -0.50221    -0.48537    -0.47630
    -0.45140    -0.43941    -0.41979    -0.39150    -0.35015    -0.33451
    -0.31894    -0.30875    -0.30226    -0.26259    -0.09728    -0.05611
    -0.01431    -0.00609     0.00142     0.01082     0.03104     0.03969
     0.04138     0.05333
 
  end of program scf
   
 Time(scf)  user:       23.5  user+sys:       23.5  wallclock:        3.7
  
  start of program sole
  
    SCRF                   solvation energy
  iteration          Hartrees            kcal/mol
     0               0.0000000            0.0000
     1              -0.0295249          -18.5271
     2              -0.0372173          -23.3542
  
  solvation energy not yet converged... 
  
  end of program sole
   
 Time(sole)  user:        0.3  user+sys:        0.3  wallclock:        0.1
  
  start of program ch
  
  gridpoints used for charge fit         3046
    out of a possible maximum of         3046
  
   Electrostatic potential fitting constrained to reproduce
     total charge:                yes
     dipole moment:               no 
     traceless quadrupole moment: no 
     traceless octupole moment:   no 
  
  Atomic charges from electrostatic potential: 
   
 Atom       O1           O2           O3           N4           N5      
 Charge   -0.64642     -0.66801     -0.44924     -0.45647     -0.37794
   
 Atom       N6           N7           C8           C9           C10     
 Charge   -0.23027     -0.03378      0.19263      0.57417     -0.08171
   
 Atom       C11          H12          H13          H14          H15     
 Charge    0.70242      0.21336      0.38953      0.40681      0.46492
  
  sum of atomic charges:     0.000000
   
 RMS Error   2.36E-03 hartrees
 
  end of program ch
   
 Time(ch)  user:        4.5  user+sys:        4.5  wallclock:        1.3
  
  start of program post
  
  Writing input files for PBF
  end of program post
   
 Time(post)  user:        2.5  user+sys:        2.5  wallclock:        1.0

  start of program pbf

Pbf Version 4.10

Molecular surface area:      148.45410   [A2]
Reaction field energy:       -62.88816   [kT]

Solvent-accessible surface area:  312.67332 [A2]
Cavity energy:                      4.41004 [kT]

  Peak memory usage: 480 Mb

  end of program pbf

 Time(pbf)  user:        0.1  user+sys:        0.2  wallclock:        0.2
  
  start of program solv
  
   number of surface charges from PBF    1846
   sum of surface charges      0.00011
   
  nuclear repulsion energy.......     588.765252531 hartrees
  end of program solv
   
 Time(solv)  user:        0.6  user+sys:        0.6  wallclock:        0.1
  
  start of program scf
  
 Energy computed with NOPS off.
 Convergence Criterion:
    Energy (econv):       1.00E-06
    RMS density (dconv):  5.00E-06
  
       i  u  d  i  g                   
       t  p  i  c  r                                 RMS    maximum
       e  d  i  u  i                       energy  density   DIIS  
       r  t  s  t  d       total energy    change  change    error 
  
etot    1  N  N  2  U    -599.74110101129           1.0E-04  7.6E-04
etot    2  Y  Y  6  M    -599.74114012413  3.9E-05  3.5E-05  1.2E-03
etot    3  N  Y  2  U    -599.74115462333  1.4E-05  9.2E-06  1.3E-04
etot    4  N  Y  2  U    -599.74115656577  1.9E-06  2.8E-06  1.0E-04
etot    5  N  N  2  U    -599.74115700149  4.4E-07  0.0E+00  0.0E+00
 
  Computing the dispersion energy correction...
  
  
 Energy components, in hartrees:
   (A)  Total zero-electron terms....     588.93033107164
   (B)    Nuclear-nuclear............     588.76525253081
   (C)    Nuclear-solvent............       0.16507854083
   (E)  Total one-electron terms.....   -1984.95750585234
   (F)    Electron-nuclear...........   -2582.16355550466
   (G)    Electron-solvent...........      -0.27827634333
   (H)    Kinetic....................     597.48432599564
   (I)  Total two-electron terms.....     796.28601777921
   (J)    Coulomb....................     872.92980747968
   (K)    Exchange+Correlation.......     -76.64378970047
   (L)  Electronic energy............   -1188.67148807313  (E+I)
   (N0) D3 correction................      -0.01033329390
   (N)  Total quantum mech. energy...    -599.75149029539  (A+L+N0)
   (O)  Gas phase energy.............    -599.65153508916
   (P)  Solution phase energy........    -599.69072959145  (Q+R+S+T)
   (Q)    Total solute energy........    -599.63829249289  (N-C-G)
   (R)    Total solvent energy.......      -0.05659890125  (C/2+G/2)
   (S)    Solute cavity energy.......       0.00416180269
   (T)    First shell corr. factor...       0.00000000000
   (U)  Reorganization energy........       0.01324259627  (Q-O)
   (V)  Solvation energy.............      -0.03919450230  (P-O)
  
 SCFE:  Solution phase energy: DFT(b3lyp-d3)       -599.69072959145 hartrees
        SCF iterations:   5
  
 
 HOMO energy:    -0.26254
 LUMO energy:    -0.09729
 
  Orbital energies (hartrees): 
   -19.20191   -19.13681   -19.13434   -14.45169   -14.40035   -14.39695
   -14.38718   -10.35171   -10.32395   -10.27207   -10.24501    -1.16147
    -1.10883    -1.08486    -1.02302    -1.00269    -0.94860    -0.83295
    -0.73326    -0.69324    -0.68058    -0.60012    -0.58919    -0.54813
    -0.53350    -0.52198    -0.50616    -0.50269    -0.48578    -0.47690
    -0.45152    -0.44003    -0.42033    -0.39112    -0.35053    -0.33477
    -0.31935    -0.30977    -0.30291    -0.26254    -0.09729    -0.05646
    -0.01420    -0.00511     0.00189     0.01113     0.03082     0.04010
     0.04180     0.05355
 
  end of program scf
   
 Time(scf)  user:       17.3  user+sys:       17.3  wallclock:        2.9
  
  start of program sole
  
    SCRF                   solvation energy
  iteration          Hartrees            kcal/mol
     0               0.0000000            0.0000
     1              -0.0295249          -18.5271
     2              -0.0372173          -23.3542
     3              -0.0391945          -24.5949
  
  solvation energy not yet converged... 
  
  end of program sole
   
 Time(sole)  user:        0.3  user+sys:        0.3  wallclock:        0.1
  
  start of program ch
  
  gridpoints used for charge fit         3046
    out of a possible maximum of         3046
  
   Electrostatic potential fitting constrained to reproduce
     total charge:                yes
     dipole moment:               no 
     traceless quadrupole moment: no 
     traceless octupole moment:   no 
  
  Atomic charges from electrostatic potential: 
   
 Atom       O1           O2           O3           N4           N5      
 Charge   -0.65483     -0.67144     -0.45450     -0.45873     -0.37806
   
 Atom       N6           N7           C8           C9           C10     
 Charge   -0.24260     -0.02542      0.19272      0.57700     -0.07560
   
 Atom       C11          H12          H13          H14          H15     
 Charge    0.70688      0.21575      0.39117      0.40959      0.46806
  
  sum of atomic charges:     0.000000
   
 RMS Error   2.37E-03 hartrees
 
  end of program ch
   
 Time(ch)  user:        4.5  user+sys:        4.5  wallclock:        1.3
  
  start of program post
  
  Writing input files for PBF
  end of program post
   
 Time(post)  user:        2.5  user+sys:        2.5  wallclock:        1.0

  start of program pbf

Pbf Version 4.10

Molecular surface area:      148.45410   [A2]
Reaction field energy:       -64.69783   [kT]

Solvent-accessible surface area:  312.67332 [A2]
Cavity energy:                      4.41004 [kT]

  Peak memory usage: 480 Mb

  end of program pbf

 Time(pbf)  user:        0.1  user+sys:        0.2  wallclock:        0.2
  
  start of program solv
  
   number of surface charges from PBF    1846
   sum of surface charges      0.00012
   
  nuclear repulsion energy.......     588.765252531 hartrees
  end of program solv
   
 Time(solv)  user:        0.7  user+sys:        0.7  wallclock:        0.1
  
  start of program scf
  
 Energy computed with NOPS off.
 Convergence Criterion:
    Energy (econv):       1.00E-06
    RMS density (dconv):  5.00E-06
  
       i  u  d  i  g                   
       t  p  i  c  r                                 RMS    maximum
       e  d  i  u  i                       energy  density   DIIS  
       r  t  s  t  d       total energy    change  change    error 
  
etot    1  N  N  2  U    -599.74278496253           3.3E-05  2.3E-04
etot    2  N  Y  2  U    -599.74277987038 -5.1E-06  1.2E-05  4.1E-04
etot    3  N  Y  2  U    -599.74279109583  1.1E-05  3.3E-06  6.0E-05
etot    4  N  N  2  U    -599.74279135964  2.6E-07  0.0E+00  0.0E+00
 
  Computing the dispersion energy correction...
  
  
 Energy components, in hartrees:
   (A)  Total zero-electron terms....     588.93555992327
   (B)    Nuclear-nuclear............     588.76525253081
   (C)    Nuclear-solvent............       0.17030739246
   (E)  Total one-electron terms.....   -1984.96614389382
   (F)    Electron-nuclear...........   -2582.16286095470
   (G)    Electron-solvent...........      -0.28562831249
   (H)    Kinetic....................     597.48234537337
   (I)  Total two-electron terms.....     796.28779261091
   (J)    Coulomb....................     872.93151796505
   (K)    Exchange+Correlation.......     -76.64372535414
   (L)  Electronic energy............   -1188.67835128291  (E+I)
   (N0) D3 correction................      -0.01033329390
   (N)  Total quantum mech. energy...    -599.75312465353  (A+L+N0)
   (O)  Gas phase energy.............    -599.65153508916
   (P)  Solution phase energy........    -599.69130239083  (Q+R+S+T)
   (Q)    Total solute energy........    -599.63780373350  (N-C-G)
   (R)    Total solvent energy.......      -0.05766046002  (C/2+G/2)
   (S)    Solute cavity energy.......       0.00416180269
   (T)    First shell corr. factor...       0.00000000000
   (U)  Reorganization energy........       0.01373135566  (Q-O)
   (V)  Solvation energy.............      -0.03976730167  (P-O)
  
 SCFE:  Solution phase energy: DFT(b3lyp-d3)       -599.69130239083 hartrees
        SCF iterations:   4
  
 
 HOMO energy:    -0.26249
 LUMO energy:    -0.09730
 
  Orbital energies (hartrees): 
   -19.20266   -19.13649   -19.13485   -14.45215   -14.39988   -14.39690
   -14.38740   -10.35151   -10.32432   -10.27158   -10.24487    -1.16184
    -1.10871    -1.08524    -1.02323    -1.00244    -0.94855    -0.83289
    -0.73310    -0.69330    -0.68045    -0.60010    -0.58913    -0.54830
    -0.53339    -0.52199    -0.50610    -0.50280    -0.48601    -0.47696
    -0.45154    -0.44027    -0.42063    -0.39092    -0.35076    -0.33470
    -0.31953    -0.31014    -0.30321    -0.26249    -0.09730    -0.05660
    -0.01408    -0.00479     0.00196     0.01123     0.03074     0.04023
     0.04194     0.05364
 
  end of program scf
   
 Time(scf)  user:       16.9  user+sys:       16.9  wallclock:        2.9
  
  start of program sole
  
    SCRF                   solvation energy
  iteration          Hartrees            kcal/mol
     0               0.0000000            0.0000
     1              -0.0295249          -18.5271
     2              -0.0372173          -23.3542
     3              -0.0391945          -24.5949
     4              -0.0397673          -24.9544
  
  solvation energy not yet converged... 
  
  end of program sole
   
 Time(sole)  user:        0.3  user+sys:        0.3  wallclock:        0.1
  
  start of program ch
  
  gridpoints used for charge fit         3046
    out of a possible maximum of         3046
  
   Electrostatic potential fitting constrained to reproduce
     total charge:                yes
     dipole moment:               no 
     traceless quadrupole moment: no 
     traceless octupole moment:   no 
  
  Atomic charges from electrostatic potential: 
   
 Atom       O1           O2           O3           N4           N5      
 Charge   -0.65757     -0.67192     -0.45579     -0.45919     -0.37771
   
 Atom       N6           N7           C8           C9           C10     
 Charge   -0.24760     -0.02176      0.19312      0.57777     -0.07447
   
 Atom       C11          H12          H13          H14          H15     
 Charge    0.70770      0.21670      0.39146      0.41044      0.46883
  
  sum of atomic charges:    -0.000000
   
 RMS Error   2.37E-03 hartrees
 
  end of program ch
   
 Time(ch)  user:        4.6  user+sys:        4.6  wallclock:        1.2
  
  start of program post
  
  Writing input files for PBF
  end of program post
   
 Time(post)  user:        2.6  user+sys:        2.6  wallclock:        1.0

  start of program pbf

Pbf Version 4.10

Molecular surface area:      148.45410   [A2]
Reaction field energy:       -65.26507   [kT]

Solvent-accessible surface area:  312.67332 [A2]
Cavity energy:                      4.41004 [kT]

  Peak memory usage: 480 Mb

  end of program pbf

 Time(pbf)  user:        0.1  user+sys:        0.2  wallclock:        0.2
  
  start of program solv
  
   number of surface charges from PBF    1846
   sum of surface charges      0.00012
   
  nuclear repulsion energy.......     588.765252531 hartrees
  end of program solv
   
 Time(solv)  user:        0.7  user+sys:        0.7  wallclock:        0.1
  
  start of program scf
  
 Energy computed with NOPS off.
 Convergence Criterion:
    Energy (econv):       1.00E-06
    RMS density (dconv):  5.00E-06
  
       i  u  d  i  g                   
       t  p  i  c  r                                 RMS    maximum
       e  d  i  u  i                       energy  density   DIIS  
       r  t  s  t  d       total energy    change  change    error 
  
etot    1  N  N  2  U    -599.74330198593           1.2E-05  1.1E-04
etot    2  N  Y  2  U    -599.74330132608 -6.6E-07  4.4E-06  1.8E-04
etot    3  N  Y  2  U    -599.74330279280  1.5E-06  9.3E-07  1.8E-05
etot    4  N  N  2  U    -599.74330282112  2.8E-08  0.0E+00  0.0E+00
 
  Computing the dispersion energy correction...
  
  
 Energy components, in hartrees:
   (A)  Total zero-electron terms....     588.93818853402
   (B)    Nuclear-nuclear............     588.76525253081
   (C)    Nuclear-solvent............       0.17293600321
   (E)  Total one-electron terms.....   -1984.97099505715
   (F)    Electron-nuclear...........   -2582.16496380855
   (G)    Electron-solvent...........      -0.28894326078
   (H)    Kinetic....................     597.48291201217
   (I)  Total two-electron terms.....     796.28950370201
   (J)    Coulomb....................     872.93336477241
   (K)    Exchange+Correlation.......     -76.64386107040
   (L)  Electronic energy............   -1188.68149135514  (E+I)
   (N0) D3 correction................      -0.01033329390
   (N)  Total quantum mech. energy...    -599.75363611502  (A+L+N0)
   (O)  Gas phase energy.............    -599.65153508916
   (P)  Solution phase energy........    -599.69147068355  (Q+R+S+T)
   (Q)    Total solute energy........    -599.63762885745  (N-C-G)
   (R)    Total solvent energy.......      -0.05800362879  (C/2+G/2)
   (S)    Solute cavity energy.......       0.00416180269
   (T)    First shell corr. factor...       0.00000000000
   (U)  Reorganization energy........       0.01390623171  (Q-O)
   (V)  Solvation energy.............      -0.03993559439  (P-O)
  
 SCFE:  Solution phase energy: DFT(b3lyp-d3)       -599.69147068355 hartrees
        SCF iterations:   4
  
 
 HOMO energy:    -0.26250
 LUMO energy:    -0.09730
 
  Orbital energies (hartrees): 
   -19.20252   -19.13650   -19.13490   -14.45208   -14.39988   -14.39701
   -14.38742   -10.35152   -10.32440   -10.27165   -10.24489    -1.16181
    -1.10871    -1.08535    -1.02324    -1.00242    -0.94856    -0.83291
    -0.73311    -0.69332    -0.68044    -0.60012    -0.58910    -0.54829
    -0.53336    -0.52200    -0.50611    -0.50285    -0.48602    -0.47700
    -0.45157    -0.44034    -0.42067    -0.39090    -0.35077    -0.33471
    -0.31959    -0.31024    -0.30326    -0.26250    -0.09730    -0.05666
    -0.01409    -0.00471     0.00202     0.01124     0.03070     0.04025
     0.04197     0.05365
 
  end of program scf
   
 Time(scf)  user:       17.1  user+sys:       17.1  wallclock:        3.0
  
  start of program sole
  
    SCRF                   solvation energy
  iteration          Hartrees            kcal/mol
     0               0.0000000            0.0000
     1              -0.0295249          -18.5271
     2              -0.0372173          -23.3542
     3              -0.0391945          -24.5949
     4              -0.0397673          -24.9544
     5              -0.0399356          -25.0600
  
  solvation energy not yet converged... 
  
  end of program sole
   
 Time(sole)  user:        0.3  user+sys:        0.3  wallclock:        0.1
  
  start of program ch
  
  gridpoints used for charge fit         3046
    out of a possible maximum of         3046
  
   Electrostatic potential fitting constrained to reproduce
     total charge:                yes
     dipole moment:               no 
     traceless quadrupole moment: no 
     traceless octupole moment:   no 
  
  Atomic charges from electrostatic potential: 
   
 Atom       O1           O2           O3           N4           N5      
 Charge   -0.65851     -0.67190     -0.45630     -0.45939     -0.37751
   
 Atom       N6           N7           C8           C9           C10     
 Charge   -0.24935     -0.02053      0.19338      0.57781     -0.07395
   
 Atom       C11          H12          H13          H14          H15     
 Charge    0.70793      0.21699      0.39153      0.41070      0.46910
  
  sum of atomic charges:    -0.000000
   
 RMS Error   2.37E-03 hartrees
 
  end of program ch
   
 Time(ch)  user:        4.6  user+sys:        4.6  wallclock:        1.3
  
  start of program post
  
  Writing input files for PBF
  end of program post
   
 Time(post)  user:        2.5  user+sys:        2.5  wallclock:        1.0

  start of program pbf

Pbf Version 4.10

Molecular surface area:      148.45410   [A2]
Reaction field energy:       -65.46367   [kT]

Solvent-accessible surface area:  312.67332 [A2]
Cavity energy:                      4.41004 [kT]

  Peak memory usage: 480 Mb

  end of program pbf

 Time(pbf)  user:        0.1  user+sys:        0.1  wallclock:        0.2
  
  start of program solv
  
   number of surface charges from PBF    1846
   sum of surface charges      0.00012
   
  nuclear repulsion energy.......     588.765252531 hartrees
  end of program solv
   
 Time(solv)  user:        0.7  user+sys:        0.7  wallclock:        0.1
  
  start of program scf
  
 Energy computed with NOPS off.
 Convergence Criterion:
    Energy (econv):       1.00E-06
    RMS density (dconv):  5.00E-06
  
       i  u  d  i  g                   
       t  p  i  c  r                                 RMS    maximum
       e  d  i  u  i                       energy  density   DIIS  
       r  t  s  t  d       total energy    change  change    error 
  
etot    1  N  N  2  U    -599.74348047007           3.9E-06  3.7E-05
etot    2  N  N  2  U    -599.74348044289 -2.7E-08  0.0E+00  0.0E+00
 
  Computing the dispersion energy correction...
  
  
 Energy components, in hartrees:
   (A)  Total zero-electron terms....     588.93919916668
   (B)    Nuclear-nuclear............     588.76525253081
   (C)    Nuclear-solvent............       0.17394663587
   (E)  Total one-electron terms.....   -1984.97429640511
   (F)    Electron-nuclear...........   -2582.16772991154
   (G)    Electron-solvent...........      -0.29022428204
   (H)    Kinetic....................     597.48365778847
   (I)  Total two-electron terms.....     796.29161679554
   (J)    Coulomb....................     872.93560792797
   (K)    Exchange+Correlation.......     -76.64399113243
   (L)  Electronic energy............   -1188.68267960957  (E+I)
   (N0) D3 correction................      -0.01033329390
   (N)  Total quantum mech. energy...    -599.75381373678  (A+L+N0)
   (O)  Gas phase energy.............    -599.65153508916
   (P)  Solution phase energy........    -599.69151311101  (Q+R+S+T)
   (Q)    Total solute energy........    -599.63753609062  (N-C-G)
   (R)    Total solvent energy.......      -0.05813882308  (C/2+G/2)
   (S)    Solute cavity energy.......       0.00416180269
   (T)    First shell corr. factor...       0.00000000000
   (U)  Reorganization energy........       0.01399899854  (Q-O)
   (V)  Solvation energy.............      -0.03997802185  (P-O)
  
 SCFE:  Solution phase energy: DFT(b3lyp-d3)       -599.69151311101 hartrees
        SCF iterations:   2
  
 
 HOMO energy:    -0.26250
 LUMO energy:    -0.09730
 
  Orbital energies (hartrees): 
   -19.20230   -19.13671   -19.13481   -14.45205   -14.39999   -14.39689
   -14.38727   -10.35159   -10.32424   -10.27189   -10.24482    -1.16174
    -1.10876    -1.08531    -1.02318    -1.00247    -0.94854    -0.83290
    -0.73313    -0.69328    -0.68043    -0.60012    -0.58910    -0.54825
    -0.53336    -0.52197    -0.50613    -0.50286    -0.48599    -0.47704
    -0.45157    -0.44032    -0.42062    -0.39093    -0.35073    -0.33476
    -0.31957    -0.31023    -0.30322    -0.26250    -0.09730    -0.05664
    -0.01410    -0.00470     0.00204     0.01124     0.03070     0.04025
     0.04198     0.05365
 
  end of program scf
   
 Time(scf)  user:        7.9  user+sys:        7.9  wallclock:        1.8
  
  start of program sole
  
    SCRF                   solvation energy
  iteration          Hartrees            kcal/mol
     0               0.0000000            0.0000
     1              -0.0295249          -18.5271
     2              -0.0372173          -23.3542
     3              -0.0391945          -24.5949
     4              -0.0397673          -24.9544
     5              -0.0399356          -25.0600
     6              -0.0399780          -25.0866
  
  stopping: solvation energy converged
  
  iterations:   6    sfinal:    -25.0866 kcal/mol
  
  end of program sole
   
 Time(sole)  user:        0.3  user+sys:        0.3  wallclock:        0.1
  
  start of program rwr
  
  end of program rwr
   
 Time(rwr)  user:        4.5  user+sys:        4.5  wallclock:        0.6
  
  start of program cpolar
  
  
  solving first-order CPHF/CPKS equations ...
  
     v    i  j  k  i  g
     e    t  c  c  c  r
     c    e  o  o  u  i
     t    r  r  r  t  d       RMS  
  
     1    1  0  0  6  M     9.0E-02
     1    2  0  0  6  M     6.4E-03
     1    3  0  0  6  M     2.6E-03
     1    4  0  0  6  M     7.0E-04
     1    5  0  0  6  M     3.1E-04
     1    6  0  0  6  M     8.9E-05
     1    7  0  0  6  M     4.3E-05
  
  
  dipole (in AU):
  ux=    2.67269   uy=    1.81183   uz=    0.34194   u=    3.24699
  
  polarizability (in AU):
  alpha(x x)=     109.809    alpha(x y)=     -27.417    alpha(x z)=       0.592
  alpha(y x)=     -27.417    alpha(y y)=     132.288    alpha(y z)=       2.233
  alpha(z x)=       0.592    alpha(z y)=       2.233    alpha(z z)=      47.042
  
  alpha=     96.380
  Dalpha=     76.525
  
  atomic polarizability (in AU):
  
    1    O1       polarizability=     18.591
  alpha(x x)=      25.787    alpha(x y)=      14.999    alpha(x z)=       1.548
  alpha(y x)=      14.999    alpha(y y)=      21.546    alpha(y z)=       0.233
  alpha(z x)=       1.548    alpha(z y)=       0.233    alpha(z z)=       8.440
  
    2    O2       polarizability=     30.060
  alpha(x x)=      23.899    alpha(x y)=     -27.394    alpha(x z)=      -1.009
  alpha(y x)=     -27.394    alpha(y y)=      58.782    alpha(y z)=       1.808
  alpha(z x)=      -1.009    alpha(z y)=       1.808    alpha(z z)=       7.498
  
    3    O3       polarizability=     32.814
  alpha(x x)=      40.726    alpha(x y)=     -35.442    alpha(x z)=      -7.183
  alpha(y x)=     -35.442    alpha(y y)=      46.556    alpha(y z)=      -6.987
  alpha(z x)=      -7.183    alpha(z y)=      -6.987    alpha(z z)=      11.159
  
    4    N4       polarizability=      4.326
  alpha(x x)=       0.358    alpha(x y)=      -2.093    alpha(x z)=       0.271
  alpha(y x)=      -2.093    alpha(y y)=       0.005    alpha(y z)=      -0.347
  alpha(z x)=       0.271    alpha(z y)=      -0.347    alpha(z z)=      12.614
  
    5    N5       polarizability=      7.263
  alpha(x x)=      -2.793    alpha(x y)=       3.918    alpha(x z)=       2.387
  alpha(y x)=       3.918    alpha(y y)=       8.977    alpha(y z)=      -1.455
  alpha(z x)=       2.387    alpha(z y)=      -1.455    alpha(z z)=      15.605
  
    6    N6       polarizability=      5.302
  alpha(x x)=      -2.598    alpha(x y)=       8.117    alpha(x z)=       0.827
  alpha(y x)=       8.117    alpha(y y)=      10.552    alpha(y z)=      -2.638
  alpha(z x)=       0.827    alpha(z y)=      -2.638    alpha(z z)=       7.953
  
    7    N7       polarizability=     14.541
  alpha(x x)=      29.271    alpha(x y)=     -19.428    alpha(x z)=       3.174
  alpha(y x)=     -19.428    alpha(y y)=       8.622    alpha(y z)=      -4.835
  alpha(z x)=       3.174    alpha(z y)=      -4.835    alpha(z z)=       5.732
  
    8    C8       polarizability=     -2.310
  alpha(x x)=      -6.473    alpha(x y)=      -2.859    alpha(x z)=      -0.169
  alpha(y x)=      -2.859    alpha(y y)=      -4.667    alpha(y z)=       0.284
  alpha(z x)=      -0.169    alpha(z y)=       0.284    alpha(z z)=       4.209
  
    9    C9       polarizability=     -4.264
  alpha(x x)=      -8.363    alpha(x y)=      -1.475    alpha(x z)=       0.381
  alpha(y x)=      -1.475    alpha(y y)=     -10.683    alpha(y z)=      -0.510
  alpha(z x)=       0.381    alpha(z y)=      -0.510    alpha(z z)=       6.255
  
   10    C10      polarizability=      3.000
  alpha(x x)=      -1.578    alpha(x y)=       2.229    alpha(x z)=       1.528
  alpha(y x)=       2.229    alpha(y y)=       5.238    alpha(y z)=      -1.548
  alpha(z x)=       1.528    alpha(z y)=      -1.548    alpha(z z)=       5.342
  
   11    C11      polarizability=     -7.996
  alpha(x x)=     -11.301    alpha(x y)=       1.717    alpha(x z)=       1.372
  alpha(y x)=       1.717    alpha(y y)=     -21.477    alpha(y z)=      -0.869
  alpha(z x)=       1.372    alpha(z y)=      -0.869    alpha(z z)=       8.790
  
   12    H12      polarizability=      7.708
  alpha(x x)=      20.501    alpha(x y)=       9.178    alpha(x z)=      -1.999
  alpha(y x)=       9.178    alpha(y y)=       2.291    alpha(y z)=      -0.465
  alpha(z x)=      -1.999    alpha(z y)=      -0.465    alpha(z z)=       0.332
  
   13    H13      polarizability=      6.067
  alpha(x x)=      17.678    alpha(x y)=      -5.238    alpha(x z)=      -0.682
  alpha(y x)=      -5.238    alpha(y y)=       0.398    alpha(y z)=       0.043
  alpha(z x)=      -0.682    alpha(z y)=       0.043    alpha(z z)=       0.124
  
   14    H14      polarizability=      6.517
  alpha(x x)=       1.762    alpha(x y)=       6.872    alpha(x z)=      -0.139
  alpha(y x)=       6.872    alpha(y y)=      17.737    alpha(y z)=      -0.344
  alpha(z x)=      -0.139    alpha(z y)=      -0.344    alpha(z z)=       0.052
  
   15    H15      polarizability=     12.006
  alpha(x x)=      33.346    alpha(x y)=     -25.564    alpha(x z)=       3.003
  alpha(y x)=     -25.564    alpha(y y)=       1.144    alpha(y z)=      -0.104
  alpha(z x)=       3.003    alpha(z y)=      -0.104    alpha(z z)=       1.529
  
  first hyperpolarizability (in AU):
  beta(x,x,x)=  -9.88098031E+01
  beta(y,y,y)=  -2.37579956E+02
  beta(z,z,z)=  -5.96330573E+00
  beta(x,y,y)=   2.80413290E+02
  beta(x,z,z)=   8.88704373E+00
  beta(y,x,x)=  -1.55676315E+02
  beta(y,z,z)=  -7.23446596E+00
  beta(z,x,x)=   2.02207220E+01
  beta(z,y,y)=   4.89735356E-01
  beta(x,y,z)=  -1.14583186E+01
  sum beta(x)=   1.90490531E+02
  sum beta(y)=  -4.00490736E+02
  sum beta(z)=   1.47471517E+01
  beta=  -3.90744490E+01
  
  end of program cpolar
   
 Time(cpolar)  user:       33.8  user+sys:       33.8  wallclock:        5.0
  
  start of program elden
  
  
  Plot box parameters (in Angstroms):
   x min,max:          -5.070221    5.929779
   y min,max:          -5.264590    5.535410
   z min,max:          -2.930354    2.869646
   plot resolution:     5.000000
   points:    55   54   29
  
 
  Calculating electron density...
  File(s) written:
    20116_single_point_water_density.vis
  
  Calculating electrostatic potential in units of kcal/mol
  
  Electrostatic Potential at the Nuclei (EPN)
 
    Atom    EPN (au)  EPN (kcal/mol)
  --------  --------  --------------
  O1         -22.421       -14069.28
  O2         -22.385       -14046.63
  O3         -22.316       -14003.63
  N4         -18.308       -11488.71
  N5         -18.264       -11460.74
  N6         -18.360       -11521.21
  N7         -18.289       -11476.23
  C8         -14.702        -9225.62
  C9         -14.638        -9185.61
  C10        -14.641        -9187.49
  C11        -14.581        -9149.92
  H12         -0.991         -621.72
  H13         -0.955         -599.11
  H14         -0.903         -566.62
  H15         -0.919         -576.87
  
  File written:
    20116_single_point_water_potential.vis
 
  Calculating orbital amplitude...
  Files written:
    20116_single_point_water_HOMO.vis
    20116_single_point_water_LUMO.vis
  
  Density isovalue:  0.00100 electrons/bohr**3,  0.00015 electrons/A**3
  Number of surface points:      6012
  Area of molecular surface:    617.0 bohr**2,    172.8 A**2
  
  
  Analysis of ESP on isodensity surface:
  ------------------------------------- 
  
  Minimum ESP value:                  -61.51 kcal/mol
  Maximum ESP value:                   81.08 kcal/mol
  Mean ESP value:                       3.33 kcal/mol
  Mean positive ESP value:             29.68 kcal/mol
  Mean negative ESP value:            -28.96 kcal/mol
  Number of positive ESP values:        3310
  Number of negative ESP values:        2702
  Variance of positive ESP values:    406.29 (kcal/mol)**2
  Variance of negative ESP values:    264.16 (kcal/mol)**2
  Total ESP variance:                 670.45 (kcal/mol)**2
  ESP balance:                         0.239
  Local polarity:                      29.13 kcal/mol
  
    Atom    Max. ESP  Min. ESP
  --------  --------  --------
  O1           -2.16    -61.51
  O2           16.40    -37.45
  O3           13.47    -48.89
  N4           32.63      5.85
  N5           40.51     25.00
  N6           18.84    -59.78
  N7           21.02    -17.87
  C8           25.43     -8.49
  C9           26.42    -19.15
  C10          40.71     15.33
  C11          32.62      8.57
  H12          71.29     13.03
  H13          48.22    -17.15
  H14          81.08      0.84
  H15          72.06     -6.65
  
  end of program elden
   
 Time(elden)  user:       12.1  user+sys:       12.1  wallclock:        5.1
  
  start of program post
  
  Writing input files for PBF
  end of program post
   
 Time(post)  user:        2.5  user+sys:        2.5  wallclock:        1.0

 Total cpu seconds     user:     218.056   user+sys:     218.056
  
 Total elapsed time:    58 seconds

Job 20116_single_point_water completed on vm-linux1 at Mon Jan 20 13:00:38 2025
