Job 20116_keto_isomer2 started on vm-linux2 at Tue Jan 28 13:43:40 2025
jobid: vm-linux2-0-6798c2eb

  +--------------------------------------------------------------------+
  |  Jaguar version 11.2, release 117                                  |
  |                                                                    |
  |  Copyright Schrodinger, Inc.                                       |
  |  All Rights Reserved.                                              |
  |                                                                    |
  |  The following have contributed to Jaguar (listed alphabetically): |
  |  Mike Beachy, Art Bochevarov, Dale Braden, Yixiang Cao,            |
  |  Alan Chien, Chris Cortis, Rich Friesner, Bill Goddard,            |
  |  Hod Greeley, Tom Hughes, Leif Jacobson, Jean-Marc Langlois,       |
  |  Daniel Levine, Daniel Mainz, Rob Murphy, Dean Philipp,            |
  |  Tom Pollard, Murco Ringnalda, Mark Watson, Haoyu Yu.              |
  |                                                                    |
  |  Use of this program should be acknowledged in publications as:    |
  |                                                                    |
  |  Jaguar, version 11.2, Schrodinger, Inc., New York, NY, 2021.      |
  |                                                                    |
  |  A. D. Bochevarov, E. Harder, T. F. Hughes, J. R. Greenwood,       |
  |  D. A. Braden, D. M. Philipp, D. Rinaldo, M. D. Halls,             |
  |  J. Zhang, R. A. Friesner, "Jaguar: A High-Performance Quantum     |
  |  Chemistry Software Program with Strengths in Life and Materials   |
  |  Sciences", Int. J. Quantum Chem., 2013, 113(18), 2110-2142.       |
  +--------------------------------------------------------------------+
  
  start of program pre
  
  Job name: 20116_keto_isomer2
  Executables used: /mnt/Data_4/SCHRODINGER_2021-2/jaguar-v11.2/bin/Linux-x86_64
  Temporary files : /home/vm/.schrodinger/tmp/20116_keto_isomer2#vm-linux2-0-6798c2eb
  Maestro file (input):  20116_keto_isomer2.mae
  Maestro file (output): 20116_keto_isomer2.01.mae
  
 Contents of input file: &gen section only
 ----------------Contents start----------------
&gen
irder=1
iuhf=0
basis=CC-PVTZ(-F)++
massav=1
scalfr=0.95
dftname=M06-2X
ifreq=1
ncanorb=378
&
 -----------------Contents end-----------------
 
  basis set:             cc-pvtz(-f)++                   
  net molecular charge:    0
  multiplicity:            1
  
  Using up to   4 threads per process
  
  number of basis functions....          404
  
 Input geometry:
                                   angstroms
  atom               x                 y                 z
  O1            1.7478690000     -1.5045680000     -0.0061720000 
  O2            1.8160920000      3.0902650000     -0.0095750000 
  O3           -2.7529080000     -2.8332260000     -0.0147530000 
  N4            1.7614390000      0.7887650000     -0.0081890000 
  N5           -0.2074990000      2.0069720000     -0.0043230000 
  N6           -0.9970500000     -1.5965020000     -0.0022060000 
  N7           -2.3360080000     -1.6835690000     -0.0178230000 
  C8           -0.3396460000     -0.3644730000     -0.0027580000 
  C9            1.1248630000     -0.4521600000     -0.0061370000 
  C10          -0.9490800000      0.8450900000     -0.0018830000 
  C11           1.1801440000      2.0544730000     -0.0076110000 
  H12          -2.0259260000      0.9499180000      0.0026500000 
  H13           2.7742960000      0.7745920000     -0.0105530000 
  H14          -0.6637660000      2.9076110000     -0.0030580000 
  H15          -0.4361330000     -2.4509480000      0.0044470000 
   
  principal moments of inertia:
        amu*angstrom^2:      191.17619      760.19949      951.36883
                g*cm^2: 3.17455495E-38 1.26234080E-37 1.57978491E-37
   
  rotational constants:
               cm^(-1):      0.08817850      0.02217527      0.01771934
                   GHz:      2.64352482      0.66479788      0.53121249
   
  Molecular weight:     156.10 amu
   
  Stoichiometry: C4N4H4O3
[running at reduced cpu priority]
  Molecular Point Group: C1      
  Point Group used: C1
  
  nuclear repulsion energy.......     591.894355148 hartrees
 
 Non-default options chosen:
   SCF calculation type: DFT(m06-2x)                 
   DFT=M06-2X (M06-2X)
   Vibrational frequencies and related properties will be computed
      from analytic second derivatives
   IR intensities will be computed
   Vibrational frequencies will be scaled by a factor of  0.950
   Naturally occuring average isotopic masses used 
   Thermochemical properties will be computed
  
 Temporary integer options set:
     73=  2
  
   Fixing number of canonical orbitals to remain constant.
   Number of canonical orbitals to use:   378
  
  end of program pre
   
 Time(pre)  user:        2.3  user+sys:        2.3  wallclock:        1.2
  
  start of program onee
  
  smallest eigenvalue of S:    4.062E-06
  Set cut 20/10 to   5.016099316564759E-004
  number of canonical orbitals.....          378
  end of program onee
   
 Time(onee)  user:        0.6  user+sys:        0.6  wallclock:        0.2
  
  start of program hfig
  
  initial wavefunction generated automatically from atomic wavefunctions
 
  Irreducible     Total no   No of occupied orbitals 
  representation  orbitals   Shell_1  Shell_2    ...
  No Symm          378         40
  ------------------------
  Orbital occupation/shell    1.000
 
  end of program hfig
   
 Time(hfig)  user:        0.8  user+sys:        0.8  wallclock:        0.2
  
  start of program probe
  
  end of program probe
   
 Time(probe)  user:        0.5  user+sys:        0.5  wallclock:        0.1
  
  start of program grid
  
   grid     grid set  grid #  grid sym
  ------    --------  ------  --------
  coarse        0        0        1
  medium        2        1        1
  fine          0        0        1
  ultrafine     4        2        1
  charge        0        0        1
  gradient      4        2        1
  density       0        0        1
  DFT-fine    -11        3        1
  DFT-med.    -10        4        1
  DFT-grad    -12        5        1
  DFT-der2     -8        6        1
  DFT-cphf     -9        7        1
  LMP2-enrg     4        2        1
  LMP2-grad     2        1        1
  DFT-cphf2   -15        8        1
  PBF-dens      0        0        1
  plotting      0        0        1
  Rel-grad    -17        0        1
  
  number of gridpoints: 
     atom        O1       O2       O3       N4       N5       N6       N7
  grid # 1      728      734      742      531      525      526      629
  grid # 2      728      734      742      531      525      526      629
  grid # 3     5654     5654     5654     5654     5654     5654     5654
  grid # 4     2152     2152     2152     2152     2152     2152     2152
  grid # 5    19580    19580    19580    19580    19580    19580    19580
  grid # 6    63040    63040    63040    62394    62394    62394    62394
  grid # 7     7568     7568     7568     8972     8972     8972     8972
  grid # 8     1434     1434     1434     3852     3852     3852     3852
   
  number of gridpoints: 
     atom        C8       C9      C10      C11      H12      H13      H14
  grid # 1      523      503      478      506      222      226      226
  grid # 2      523      503      478      506      221      223      225
  grid # 3     5654     5654     5654     5654     5654     5654     5654
  grid # 4     2152     2152     2152     2152     2152     2152     2152
  grid # 5    19580    19580    19580    19580    19580    19580    19580
  grid # 6    62658    62658    62658    62658    66806    66806    66806
  grid # 7     9014     9014     9014     9014     9848     9848     9848
  grid # 8     3806     3806     3806     3806     2486     2486     2486
   
  number of gridpoints: 
     atom       H15    total
  grid # 1      222     7321
  grid # 2      219     7313
  grid # 3     5654    84810
  grid # 4     2152    32280
  grid # 5    19580   293700
  grid # 6    66806   956552
  grid # 7     9848   134040
  grid # 8     2486    44878
   
  end of program grid
   
 Time(grid)  user:        5.3  user+sys:        5.3  wallclock:        1.5
  
  start of program rwr
  
  end of program rwr
   
 Time(rwr)  user:        4.2  user+sys:        4.2  wallclock:        1.2
  
  start of program scf
  
 number of electrons..........         80
 number of alpha electrons....         40
 number of beta electrons.....         40
 number of orbitals, total....        378
 number of doubly-occ'd orbs..         40
 number of open shell orbs....          0
 number of occupied orbitals..         40
 number of virtual orbitals...        338
 number of hamiltonians.......          1
 number of shells.............          1
 SCF type: DFT=M06-2X (M06-2X)
 Energy computed with NOPS off.
 Convergence Criterion:
    Energy (econv):       1.00E-05
    RMS density (dconv):  5.00E-06
  
       i  u  d  i  g                   
       t  p  i  c  r                                 RMS    maximum
       e  d  i  u  i                       energy  density   DIIS  
       r  t  s  t  d       total energy    change  change    error 
  
etot    1  N  N  5  M    -597.38605907557           3.4E-03  1.5E-01
etot    2  Y  Y  6  M    -596.03396561648 -1.4E+00  3.3E-03  1.8E-01
etot    3  Y  Y  6  M    -598.16247420707  2.1E+00  1.6E-03  9.6E-02
etot    4  N  Y  2  U    -599.36214992680  1.2E+00  6.5E-04  2.9E-02
etot    5  Y  Y  6  M    -599.41826794603  5.6E-02  3.1E-04  1.6E-02
etot    6  N  Y  2  U    -599.45478215942  3.7E-02  8.4E-05  6.0E-03
etot    7  Y  Y  6  M    -599.45715292339  2.4E-03  4.1E-05  2.2E-03
etot    8  N  Y  2  U    -599.45751899197  3.7E-04  1.9E-05  6.1E-04
etot    9  N  Y  2  U    -599.45759309442  7.4E-05  1.1E-05  3.7E-04
etot   10  N  Y  2  U    -599.45761651030  2.3E-05  4.7E-06  1.7E-04
etot   11  N  N  2  U    -599.45762081141  4.3E-06  0.0E+00  0.0E+00
  
  
 Energy components, in hartrees:
   (A)  Nuclear repulsion............     591.89435514816
   (E)  Total one-electron terms.....   -1989.63714616476
   (I)  Total two-electron terms.....     798.28517020519
   (J)    Coulomb....................     874.60319483145
   (K)    Exchange+Correlation.......     -76.31802462626
   (L)  Electronic energy............   -1191.35197595957  (E+I)
   (N)  Total energy.................    -599.45762081141  (A+L)
   (O)  Gas phase energy.............    -599.45762081141
  
 SCFE: SCF energy: DFT(m06-2x)      -599.45762081141 hartrees   iterations:  11
  
 
 HOMO energy:    -0.30017
 LUMO energy:    -0.05843
 
  Orbital energies (hartrees): 
   -19.67738   -19.64404   -19.63528   -14.91881   -14.85040   -14.84553
   -14.83604   -10.72667   -10.70431   -10.64773   -10.63521    -1.30606
    -1.23036    -1.20562    -1.12328    -1.10351    -1.06707    -0.92589
    -0.83871    -0.78465    -0.78335    -0.71825    -0.67095    -0.62441
    -0.61810    -0.61107    -0.59771    -0.58437    -0.57238    -0.54589
    -0.52913    -0.51744    -0.50728    -0.47335    -0.41329    -0.40567
    -0.38422    -0.38203    -0.34254    -0.30017    -0.05843    -0.02114
    -0.01400    -0.00255     0.00815     0.01374     0.02095     0.02664
     0.03754     0.04468
 
  end of program scf
   
 Time(scf)  user:      146.2  user+sys:      146.2  wallclock:       37.7
  
  start of program cutabab2
  
  end of program cutabab2
   
 Time(cutabab2)  user:        2.3  user+sys:        2.3  wallclock:        0.7
  
  start of program der2a
  
  end of program der2a
   
 Time(der2a)  user:        3.6  user+sys:        3.6  wallclock:        1.0
  
  start of program der2b
  
  end of program der2b
   
 Time(der2b)  user:     4561.2  user+sys:     4561.2  wallclock:     1160.2
  
  start of program der2nda
  
 
  end of program der2nda
   
 Time(der2nda)  user:        1.2  user+sys:        1.2  wallclock:        0.6
  
  start of program der2ndb
  
  end of program der2ndb
   
 Time(der2ndb)  user:    13376.6  user+sys:    13376.6  wallclock:     3727.4
  
  start of program rwr
  
  end of program rwr
   
 Time(rwr)  user:        3.3  user+sys:        3.3  wallclock:        0.9
  
  start of program cphfa
  
       2  vectors produced in CPHF
  
     v    i  j  k  i  g
     e    t  c  c  c  r
     c    e  o  o  u  i
     t    r  r  r  t  d       RMS  
  
     1    1  0  0  6  M     1.3E-02
     1    2  0  0  6  M     1.1E-03
     1    3  0  0  6  M     4.4E-04
     1    4  0  0  6  M     2.0E-04
     1    5  0  0  6  M     6.0E-05
     1    6  0  0  6  M     2.1E-05
  
     v    i  j  k  i  g
     e    t  c  c  c  r
     c    e  o  o  u  i
     t    r  r  r  t  d       RMS  
  
     2    1  0  0  6  M     1.1E-02
     2    2  0  0  6  M     1.1E-03
     2    3  0  0  6  M     3.7E-04
     2    4  0  0  6  M     1.6E-04
     2    5  0  0  6  M     5.6E-05
     2    6  0  0  6  M     2.2E-05
  
  
  Atomic Polar Tensors (au): Total
  =========================
  
  APT for atom O1      
  --------------------------------------
       -0.8932       0.5015       0.0004
        0.3803      -1.3065      -0.0002
        0.0006       0.0004      -0.3841
  --------------------------------------
  
  APT for atom O2      
  --------------------------------------
       -0.9542      -0.7256       0.0011
       -0.6292      -1.5503       0.0014
        0.0016       0.0023      -0.4097
  --------------------------------------
  
  APT for atom O3      
  --------------------------------------
       -0.7764      -0.4818      -0.0039
       -1.2038      -1.3976      -0.0062
        0.0023       0.0033      -0.2025
  --------------------------------------
  
  APT for atom N4      
  --------------------------------------
       -0.4336      -0.1057       0.0001
       -0.1029      -1.4307       0.0009
       -0.0002       0.0008      -0.3017
  --------------------------------------
  
  APT for atom N5      
  --------------------------------------
       -1.1003      -1.1444       0.0012
       -0.0235      -1.1349      -0.0007
        0.0020       0.0034      -0.2639
  --------------------------------------
  
  APT for atom N6      
  --------------------------------------
       -1.4789      -1.5463      -0.0060
        0.0521      -0.3263       0.0010
       -0.0168      -0.0159      -0.1556
  --------------------------------------
  
  APT for atom N7      
  --------------------------------------
        1.7938       1.5604       0.0127
        1.0000       0.9230       0.0051
        0.0127       0.0098      -0.0172
  --------------------------------------
  
  APT for atom C8      
  --------------------------------------
       -0.2532       1.0854       0.0001
        0.5232       0.4217       0.0010
        0.0018       0.0005      -0.0024
  --------------------------------------
  
  APT for atom C9      
  --------------------------------------
        1.3714      -0.4902      -0.0018
       -0.2854       1.8308      -0.0009
       -0.0011      -0.0025       0.3302
  --------------------------------------
  
  APT for atom C10     
  --------------------------------------
        0.2077       0.5148      -0.0007
       -0.0432       1.1809       0.0003
       -0.0002       0.0003      -0.0012
  --------------------------------------
  
  APT for atom C11     
  --------------------------------------
        1.7614       1.0486      -0.0024
        0.5072       2.0800      -0.0016
       -0.0038      -0.0042       0.3850
  --------------------------------------
  
  APT for atom H12     
  --------------------------------------
        0.0747      -0.0389       0.0005
       -0.0002       0.0942       0.0002
        0.0007      -0.0001       0.1526
  --------------------------------------
  
  APT for atom H13     
  --------------------------------------
        0.3101       0.0093      -0.0000
       -0.0083       0.1350       0.0001
       -0.0001       0.0004       0.2834
  --------------------------------------
  
  APT for atom H14     
  --------------------------------------
        0.1803      -0.1361       0.0002
       -0.0775       0.3017       0.0002
        0.0006       0.0006       0.2941
  --------------------------------------
  
  APT for atom H15     
  --------------------------------------
        0.1905      -0.0507      -0.0014
       -0.0886       0.1795      -0.0005
        0.0002       0.0009       0.2928
  --------------------------------------
  
  end of program cphfa
   
 Time(cphfa)  user:     6181.1  user+sys:     6181.1  wallclock:     1548.6
  
  start of program freq
  
  All frequencies are shown scaled by:  0.9500
  Thermochemical calculations use scaled frequencies.
   
  Number of frequencies:  39
  harmonic frequencies in cm**-1, reduced masses in amu,
  force constants in mDyne/A, and
  normal modes in cartesian coordinates:          39
  IR intensities in km/mol
  
  vibration #            1        2        3        4        5        6
                  -------- -------- -------- -------- -------- --------
  frequencies        98.64   157.63   159.97   185.48   240.53   307.08
  intensities         7.33     7.83     0.78     1.69     8.06     6.52
  reduc. mass         1.93     2.78     3.36     5.37     5.47     2.81
  force const         0.01     0.04     0.05     0.11     0.19     0.16
    O1       X     0.00005  0.10204  0.01842 -0.00007  0.00002 -0.10337
    O1       Y    -0.00013  0.00973  0.00162 -0.00018  0.00026 -0.07091
    O1       Z     0.02823  0.01134 -0.05977 -0.12606 -0.01249 -0.00007
    O2       X    -0.00048 -0.07296 -0.01303 -0.00037  0.00042 -0.05305
    O2       Y    -0.00021  0.01888  0.00340 -0.00003  0.00012 -0.03413
    O2       Z    -0.11168 -0.01896  0.10682 -0.08207  0.00307  0.00051
    O3       X     0.00042 -0.09980 -0.01761  0.00001 -0.00104  0.07613
    O3       Y     0.00056  0.10769  0.01965  0.00030 -0.00043  0.08626
    O3       Z    -0.10805  0.00553 -0.02710 -0.01368  0.13951  0.00141
    N4       X    -0.00021  0.00990  0.00161  0.00040  0.00014 -0.00472
    N4       Y    -0.00017  0.01250  0.00213  0.00010  0.00018 -0.03230
    N4       Z    -0.03701  0.00803 -0.04516  0.19701  0.01960 -0.00022
    N5       X    -0.00005 -0.02869 -0.00554 -0.00016  0.00020 -0.03745
    N5       Y    -0.00013 -0.05064 -0.00921 -0.00012  0.00035 -0.01504
    N5       Z     0.06748  0.02055 -0.11884 -0.02788  0.01892 -0.00123
    N6       X    -0.00066  0.01623  0.00190 -0.00006 -0.00088  0.08520
    N6       Y     0.00027 -0.03833 -0.00635  0.00000  0.00064  0.02387
    N6       Z     0.08410 -0.03067  0.16729  0.03142 -0.01612 -0.00191
    N7       X     0.00102  0.00513  0.00202  0.00017  0.00127  0.10999
    N7       Y     0.00035  0.06664  0.01186  0.00026 -0.00204  0.07146
    N7       Z    -0.07836  0.00476 -0.02959  0.00635 -0.19407 -0.00059
    C8       X     0.00009  0.05390  0.00981  0.00013 -0.00022  0.01576
    C8       Y    -0.00012 -0.05577 -0.01008 -0.00010  0.00020  0.02747
    C8       Z     0.08320 -0.00813  0.04635  0.02773 -0.03125  0.00110
    C9       X    -0.00005  0.05632  0.01005  0.00009 -0.00010 -0.01309
    C9       Y    -0.00021 -0.01757 -0.00340 -0.00009  0.00010 -0.01353
    C9       Z     0.02499  0.00526 -0.02795  0.01348 -0.02107  0.00033
    C10      X     0.00020  0.01923  0.00351 -0.00000  0.00018 -0.03591
    C10      Y    -0.00010 -0.07353 -0.01327 -0.00013  0.00042 -0.00601
    C10      Z     0.11877  0.00349 -0.01909 -0.00500  0.03022  0.00095
    C11      X    -0.00024 -0.03231 -0.00587 -0.00005  0.00035 -0.04164
    C11      Y    -0.00020 -0.00600 -0.00119 -0.00004  0.00019 -0.03843
    C11      Z    -0.03635  0.00042 -0.00350  0.01806  0.01033 -0.00024
    H12      X     0.00041  0.01564  0.00293 -0.00012  0.00036 -0.03753
    H12      Y    -0.00015 -0.11469 -0.02068 -0.00019  0.00051 -0.03405
    H12      Z     0.17249  0.00059 -0.00264 -0.03267  0.07868  0.00088
    H13      X    -0.00034  0.01040  0.00176  0.00034  0.00016 -0.00441
    H13      Y    -0.00016  0.04793  0.00855  0.00013  0.00001  0.00032
    H13      Z    -0.09355  0.00394 -0.02026  0.16824  0.02817 -0.00025
    H14      X     0.00001 -0.05964 -0.01099 -0.00052  0.00034 -0.01645
    H14      Y    -0.00011 -0.06642 -0.01205 -0.00015  0.00041 -0.00456
    H14      Z     0.07528  0.01373 -0.07825 -0.14355  0.02780  0.00004
    H15      X    -0.00142 -0.03727 -0.00821 -0.00006 -0.00397  0.09884
    H15      Y    -0.00001 -0.07189 -0.01243 -0.00019  0.00136  0.03300
    H15      Z     0.11079 -0.03460  0.20001  0.00692  0.32591 -0.00053
  
  vibration #            7        8        9       10       11       12
                  -------- -------- -------- -------- -------- --------
  frequencies       340.59   397.69   402.43   426.65   518.04   547.50
  intensities         5.39    20.26     3.95    10.20    10.57    54.47
  reduc. mass         3.06     4.32     2.65     2.43     1.93     0.81
  force const         0.21     0.40     0.25     0.26     0.30     0.14
    O1       X     0.00053 -0.09343  0.00516 -0.07630  0.00402  0.00004
    O1       Y     0.00098 -0.06789  0.00144  0.04968  0.11666  0.00012
    O1       Z     0.00344  0.00255  0.05383  0.00114  0.00003 -0.01142
    O2       X     0.00128 -0.10161  0.00253  0.07464 -0.05213 -0.00018
    O2       Y    -0.00005  0.13406 -0.00622  0.01515 -0.04367 -0.00011
    O2       Z     0.02900  0.00010 -0.00308 -0.00028  0.00014 -0.01474
    O3       X    -0.00044 -0.02347  0.00326 -0.09807  0.01331 -0.00019
    O3       Y    -0.00118 -0.02101  0.00083  0.02301  0.00629  0.00003
    O3       Z     0.00809 -0.00114 -0.02201 -0.00106  0.00005  0.00304
    N4       X    -0.00011  0.08734 -0.00335 -0.01449  0.09041  0.00025
    N4       Y     0.00034  0.00890 -0.00111  0.03582 -0.01654 -0.00003
    N4       Z     0.01082  0.00191  0.04846  0.00093 -0.00011  0.03052
    N5       X    -0.00009  0.07052 -0.00373  0.01224  0.04438 -0.00010
    N5       Y     0.00027 -0.03252  0.00145 -0.00466 -0.10391 -0.00006
    N5       Z    -0.15307 -0.00167 -0.02764 -0.00038  0.00006 -0.04129
    N6       X     0.00006 -0.01373 -0.00116  0.08916 -0.00783 -0.00006
    N6       Y    -0.00060 -0.01124  0.00329 -0.11750  0.01706  0.00006
    N6       Z    -0.11617  0.00272  0.06577  0.00238  0.00013  0.01792
    N7       X    -0.00155 -0.02316 -0.00028  0.07814 -0.00454  0.00021
    N7       Y    -0.00064 -0.01916  0.00212 -0.04921  0.01182 -0.00014
    N7       Z     0.00585  0.00121  0.02884  0.00075  0.00000 -0.00656
    C8       X    -0.00039  0.01487  0.00019 -0.02864 -0.04982 -0.00005
    C8       Y    -0.00013 -0.01162  0.00114 -0.03207  0.02546  0.00014
    C8       Z     0.08489 -0.00778 -0.19036 -0.00389 -0.00017 -0.00277
    C9       X    -0.00020  0.01099  0.00052 -0.04979 -0.02586  0.00007
    C9       Y     0.00048 -0.00716 -0.00108  0.06096  0.08497  0.00012
    C9       Z     0.01951 -0.00427 -0.10260 -0.00226 -0.00040  0.03472
    C10      X     0.00031  0.04748 -0.00131 -0.01567 -0.08031 -0.00020
    C10      Y     0.00033 -0.00422  0.00036 -0.02106 -0.00639  0.00007
    C10      Z     0.15283  0.00358  0.07603  0.00136  0.00019 -0.04846
    C11      X     0.00038  0.06000 -0.00347  0.02536  0.04672  0.00003
    C11      Y     0.00035  0.02933 -0.00218  0.04055 -0.09730 -0.00020
    C11      Z    -0.03919 -0.00068 -0.00957 -0.00022 -0.00004 -0.01303
    H12      X     0.00076  0.05104 -0.00042 -0.01151 -0.07349 -0.00032
    H12      Y     0.00108  0.03122 -0.00267  0.01904  0.06450  0.00007
    H12      Z     0.24967  0.01606  0.36744  0.00727  0.00067 -0.07512
    H13      X    -0.00001  0.08741 -0.00293 -0.01559  0.08898 -0.00010
    H13      Y    -0.00012 -0.03061  0.00210 -0.00934 -0.09570 -0.00020
    H13      Z     0.05705  0.00905  0.21761  0.00468  0.00082 -0.12267
    H14      X     0.00038  0.07668 -0.00312 -0.01998  0.13816  0.00267
    H14      Y     0.00023 -0.02943  0.00158 -0.02087 -0.05790 -0.00002
    H14      Z     0.04721  0.00406  0.09768  0.00160 -0.00132  0.93741
    H15      X    -0.00071 -0.01660 -0.00047  0.15578 -0.00047  0.00075
    H15      Y    -0.00086 -0.01273  0.00285 -0.07583  0.02290  0.00021
    H15      Z    -0.08557 -0.00195 -0.04405 -0.00174  0.00037 -0.02881
  
  vibration #           13       14       15       16       17       18
                  -------- -------- -------- -------- -------- --------
  frequencies       597.59   620.45   653.06   665.43   737.25   738.45
  intensities        23.75    14.50    90.84    54.68    41.27     5.26
  reduc. mass         1.41     1.72     0.73     0.77     6.98     2.72
  force const         0.30     0.39     0.18     0.20     2.23     0.87
    O1       X    -0.04893  0.06608 -0.00013  0.00008  0.00261  0.06107
    O1       Y     0.03206  0.02991 -0.00020  0.00004 -0.00269 -0.06369
    O1       Z     0.00014 -0.00008 -0.01100 -0.00820  0.00286  0.00016
    O2       X     0.06961 -0.04943  0.00009  0.00022  0.00238  0.06162
    O2       Y     0.03253  0.05587 -0.00009  0.00016  0.00336  0.07945
    O2       Z    -0.00022  0.00011  0.00004  0.00292 -0.07801  0.00310
    O3       X     0.10280  0.03181 -0.00011  0.00040  0.00073  0.01680
    O3       Y     0.02275  0.03030 -0.00015  0.00036  0.00069  0.01580
    O3       Z     0.00067  0.00030 -0.00411  0.04747  0.00053  0.00015
    N4       X    -0.04127 -0.11049  0.00018 -0.00031  0.00190  0.04790
    N4       Y     0.03829 -0.07164  0.00010  0.00003 -0.00061 -0.01214
    N4       Z     0.00017  0.00025 -0.05310 -0.01860 -0.06966  0.00313
    N5       X     0.00235  0.07500 -0.00017  0.00021 -0.00180 -0.03859
    N5       Y    -0.08473  0.00671  0.00020 -0.00059 -0.00109 -0.02642
    N5       Z     0.00009 -0.00014  0.03197  0.00082 -0.06632  0.00292
    N6       X    -0.05828  0.00651  0.00003 -0.00056 -0.00031 -0.00753
    N6       Y     0.00328 -0.03006 -0.00008  0.00069 -0.00060 -0.01332
    N6       Z    -0.00043 -0.00028 -0.01072  0.06631 -0.00104  0.00006
    N7       X    -0.03341  0.04730 -0.00000 -0.00094  0.00075  0.01842
    N7       Y     0.06957  0.01941 -0.00004 -0.00007  0.00049  0.01117
    N7       Z    -0.00024  0.00015  0.00689 -0.07665 -0.00113  0.00005
    C8       X     0.00819 -0.06346  0.00019  0.00007 -0.00351 -0.08257
    C8       Y    -0.08321 -0.02701  0.00015 -0.00040  0.00047  0.01169
    C8       Z    -0.00009 -0.00020  0.05258  0.00261  0.00099  0.00036
    C9       X    -0.04213 -0.10778  0.00029  0.00007  0.00095  0.02335
    C9       Y     0.02450 -0.06774  0.00005  0.00021 -0.00248 -0.05771
    C9       Z    -0.00024 -0.00011 -0.01959  0.04449 -0.01134 -0.00071
    C10      X     0.02984  0.03625 -0.00019  0.00023 -0.00761 -0.18082
    C10      Y    -0.11108  0.04584  0.00006 -0.00069 -0.00016 -0.00441
    C10      Z    -0.00038 -0.00004 -0.02172  0.00801  0.00951 -0.00025
    C11      X     0.01760  0.04491 -0.00020 -0.00015  0.00249  0.04449
    C11      Y     0.05205 -0.00863  0.00002  0.00024  0.00258  0.05824
    C11      Z    -0.00003 -0.00031 -0.05176 -0.01102  0.24938 -0.01063
    H12      X     0.03029  0.04627 -0.00051  0.00021 -0.00777 -0.18139
    H12      Y    -0.11880  0.14030 -0.00017 -0.00057  0.00200  0.04641
    H12      Z    -0.00027  0.00025 -0.09285 -0.00601 -0.02517  0.00261
    H13      X    -0.04289 -0.11443  0.00242  0.00001  0.00249  0.05040
    H13      Y    -0.01368 -0.24086  0.00112 -0.00002 -0.00188 -0.04301
    H13      Z     0.00022  0.00274  0.90369  0.12298  0.13767 -0.00651
    H14      X    -0.11016  0.10325  0.00017 -0.00049 -0.00119 -0.02929
    H14      Y    -0.14358  0.02113  0.00022 -0.00090 -0.00085 -0.01996
    H14      Z     0.00178  0.00044  0.14794 -0.04715  0.04003 -0.00122
    H15      X    -0.18315  0.01457 -0.00143  0.00890 -0.00016 -0.00438
    H15      Y    -0.07409 -0.02717 -0.00007 -0.00056 -0.00059 -0.01177
    H15      Z     0.00353 -0.00049  0.10969 -0.87417 -0.01002 -0.00086
  
  vibration #           19       20       21       22       23       24
                  -------- -------- -------- -------- -------- --------
  frequencies       763.55   868.11   890.33   927.34  1040.97  1107.59
  intensities        32.97     1.98    19.89    53.76   611.78    84.35
  reduc. mass         5.31     2.21     1.20     1.69     3.95     0.74
  force const         1.82     0.98     0.56     0.86     2.52     0.53
    O1       X     0.00011 -0.00877  0.00003 -0.00840 -0.00725 -0.01935
    O1       Y    -0.00025  0.00942  0.00023  0.05206  0.00204  0.00238
    O1       Z    -0.06635 -0.00012  0.00715 -0.00004 -0.00003  0.00009
    O2       X     0.00035 -0.02547  0.00004  0.00601 -0.00171 -0.00487
    O2       Y     0.00046 -0.03139  0.00011  0.03436  0.01341  0.01655
    O2       Z     0.00368  0.00009  0.00309 -0.00003  0.00001 -0.00000
    O3       X    -0.00008  0.06308  0.00011 -0.01326  0.04178 -0.01828
    O3       Y     0.00004  0.02688  0.00008 -0.01022  0.02472 -0.02691
    O3       Z    -0.00890  0.00065 -0.00080 -0.00007  0.00013  0.00003
    N4       X    -0.00007  0.08202  0.00074  0.06580 -0.02946 -0.08297
    N4       Y    -0.00014  0.01139 -0.00031 -0.10593 -0.05197  0.00218
    N4       Z    -0.05388 -0.00026  0.00603 -0.00009  0.00011  0.00021
    N5       X    -0.00015 -0.02180 -0.00083 -0.11528  0.03254  0.04201
    N5       Y    -0.00047  0.11251  0.00052  0.06801  0.03638  0.02609
    N5       Z    -0.00754  0.00005 -0.01346  0.00034 -0.00008 -0.00015
    N6       X    -0.00009 -0.05172 -0.00072 -0.00070  0.13103 -0.04120
    N6       Y     0.00019 -0.14152 -0.00028  0.02557 -0.03656 -0.01416
    N6       Z     0.00287  0.00034  0.01385 -0.00016  0.00130 -0.00003
    N7       X     0.00049 -0.00267  0.00065  0.00786 -0.17997  0.05016
    N7       Y    -0.00002  0.04187  0.00007 -0.00449  0.00956  0.00804
    N7       Z     0.01366 -0.00049  0.00188  0.00012 -0.00175  0.00035
    C8       X    -0.00046 -0.04597 -0.00017  0.05159  0.02960  0.11258
    C8       Y     0.00014 -0.06258 -0.00016  0.00303 -0.01478  0.03435
    C8       Z    -0.12821 -0.00044 -0.05379  0.00040 -0.00043 -0.00015
    C9       X     0.00038  0.01054 -0.00039 -0.05886  0.03262  0.04377
    C9       Y    -0.00002  0.00893 -0.00012  0.00070  0.03525  0.02793
    C9       Z     0.22866  0.00052 -0.02545  0.00021 -0.00005 -0.00018
    C10      X    -0.00080  0.00788  0.00056  0.02639 -0.05169 -0.09216
    C10      Y    -0.00017  0.03677  0.00009 -0.03242 -0.02897 -0.01586
    C10      Z     0.03443 -0.00047  0.14041 -0.00081  0.00045  0.00021
    C11      X     0.00031 -0.00889  0.00037  0.06123 -0.01857  0.04399
    C11      Y     0.00027 -0.02128 -0.00006  0.00253  0.00901 -0.03123
    C11      Z    -0.01014  0.00000 -0.01389 -0.00012 -0.00001 -0.00007
    H12      X    -0.00068  0.01089 -0.00377 -0.00431 -0.04885 -0.13163
    H12      Y    -0.00030  0.08952 -0.00216 -0.32632  0.00267 -0.32510
    H12      Z     0.07463  0.00323 -0.83988  0.00409 -0.00251  0.00075
    H13      X     0.00027  0.08488  0.00071  0.06439 -0.03217 -0.08738
    H13      Y    -0.00075  0.06759 -0.00137 -0.40387 -0.13098 -0.04260
    H13      Z     0.09331 -0.00022 -0.01341 -0.00000  0.00008  0.00014
    H14      X    -0.00030  0.04162 -0.00096 -0.18497  0.13382  0.36256
    H14      Y    -0.00048  0.14951  0.00045  0.03726  0.09010  0.19563
    H14      Z    -0.05392 -0.00027  0.01259  0.00008  0.00004 -0.00096
    H15      X    -0.00097 -0.24188 -0.00099  0.00369  0.15920 -0.31324
    H15      Y     0.00084 -0.26705 -0.00051  0.02913 -0.01365 -0.19011
    H15      Z     0.15952 -0.00293  0.01200 -0.00098  0.00699 -0.00466
  
  vibration #           25       26       27       28       29       30
                  -------- -------- -------- -------- -------- --------
  frequencies      1149.44  1168.36  1312.34  1332.89  1352.13  1396.82
  intensities       130.00   146.50    21.30    26.10   170.01    98.97
  reduc. mass         1.90     1.10     1.02     0.94     1.84     1.03
  force const         1.48     0.88     1.03     0.98     1.98     1.18
    O1       X     0.01424 -0.00376  0.00558 -0.02242 -0.01386  0.00701
    O1       Y    -0.00764 -0.00397  0.00628  0.06616 -0.00847 -0.01480
    O1       Z    -0.00004  0.00003 -0.00002 -0.00002  0.00002  0.00001
    O2       X    -0.00534  0.00697  0.00830  0.01852 -0.02109 -0.04135
    O2       Y    -0.00035  0.00592  0.00631  0.04695  0.01632 -0.05122
    O2       Z     0.00001 -0.00001 -0.00002 -0.00007  0.00004  0.00012
    O3       X     0.01213  0.00089  0.01640 -0.01626  0.01469 -0.02381
    O3       Y     0.00965 -0.01798  0.01780 -0.02110  0.02058 -0.03364
    O3       Z     0.00005  0.00015  0.00011 -0.00006  0.00003 -0.00006
    N4       X     0.00652 -0.02589  0.00748  0.01427 -0.07912  0.00135
    N4       Y     0.11498 -0.00123 -0.06111 -0.11825 -0.03396  0.04959
    N4       Z    -0.00011  0.00006  0.00003  0.00004  0.00019 -0.00003
    N5       X    -0.04718 -0.06464  0.05445  0.00987 -0.01769  0.08909
    N5       Y    -0.00376 -0.07809 -0.04272  0.02367  0.03538  0.07520
    N5       Z     0.00014  0.00022 -0.00015 -0.00002  0.00002 -0.00024
    N6       X     0.04983  0.03006 -0.00251  0.03274 -0.04887  0.07784
    N6       Y    -0.00832 -0.05545 -0.06715  0.03876 -0.02717  0.06424
    N6       Z     0.00036  0.00065  0.00020  0.00020 -0.00033  0.00049
    N7       X    -0.05506 -0.02910 -0.01898  0.00846 -0.00062  0.00470
    N7       Y     0.00046  0.01855 -0.00570  0.00720 -0.00636  0.01596
    N7       Z    -0.00054 -0.00053 -0.00025  0.00003  0.00010 -0.00010
    C8       X     0.01654  0.10688 -0.05855  0.02935 -0.03263 -0.04420
    C8       Y     0.00620  0.07575  0.12669 -0.01839 -0.01586 -0.01763
    C8       Z    -0.00003 -0.00042  0.00004 -0.00016  0.00017 -0.00012
    C9       X    -0.11336 -0.00312  0.00881 -0.02421  0.11181 -0.01065
    C9       Y    -0.08770  0.00310  0.00151 -0.05433  0.07334 -0.00845
    C9       Z     0.00037  0.00001 -0.00003  0.00013 -0.00026  0.00002
    C10      X     0.00173  0.00102  0.03790 -0.02209 -0.00391 -0.04044
    C10      Y     0.03268  0.10221  0.05972 -0.04014 -0.00108 -0.04407
    C10      Z    -0.00012 -0.00001 -0.00012  0.00010  0.00000  0.00015
    C11      X     0.10935  0.03883 -0.05469 -0.01603  0.13768  0.04207
    C11      Y    -0.08195 -0.01041  0.03489 -0.01804 -0.07653  0.01385
    C11      Z    -0.00021 -0.00009  0.00010  0.00003 -0.00029 -0.00013
    H12      X    -0.03507  0.02946 -0.02306  0.00251 -0.00860 -0.04839
    H12      Y    -0.29742  0.39598 -0.58212  0.20426 -0.00154 -0.06980
    H12      Z     0.00037 -0.00052  0.00077 -0.00039  0.00020 -0.00014
    H13      X     0.00934 -0.02828  0.01140  0.02649 -0.07878 -0.00204
    H13      Y     0.31706 -0.12478  0.18051  0.66729  0.20889 -0.12001
    H13      Z    -0.00012  0.00007 -0.00011 -0.00041 -0.00004  0.00009
    H14      X     0.07230 -0.26518 -0.18120 -0.04454 -0.34337 -0.45867
    H14      Y     0.05843 -0.18654 -0.17295 -0.00219 -0.13389 -0.21027
    H14      Z    -0.00027  0.00069  0.00051  0.00018  0.00080  0.00127
    H15      X     0.08715 -0.26789 -0.05693 -0.17948  0.24761 -0.33762
    H15      Y     0.01759 -0.24850 -0.10773 -0.09418  0.16131 -0.19553
    H15      Z     0.00147 -0.00234  0.00008 -0.00188  0.00224 -0.00310
  
  vibration #           31       32       33       34       35       36
                  -------- -------- -------- -------- -------- --------
  frequencies      1462.73  1470.81  1613.60  1647.37  1695.08  3069.35
  intensities       296.32   111.81    21.91   650.01   891.17     7.63
  reduc. mass         4.51     1.02     3.91     5.56     5.56     0.93
  force const         5.69     1.30     6.00     8.90     9.42     5.16
    O1       X     0.00452 -0.00224  0.02671 -0.06927  0.00864  0.00005
    O1       Y    -0.01395 -0.01423 -0.03246  0.10862 -0.01546 -0.00011
    O1       Z    -0.00001  0.00002 -0.00002  0.00002 -0.00000 -0.00000
    O2       X     0.00929  0.01688 -0.00875  0.00226  0.06519  0.00017
    O2       Y     0.01522  0.03135 -0.00594  0.00246  0.10677  0.00009
    O2       Z    -0.00003 -0.00005  0.00002 -0.00000 -0.00020 -0.00000
    O3       X    -0.04051  0.00218  0.00236  0.00135 -0.00152  0.00005
    O3       Y    -0.13689  0.04822 -0.00417 -0.00378 -0.00425  0.00020
    O3       Z     0.00045 -0.00031  0.00009  0.00005  0.00002  0.00000
    N4       X    -0.01130 -0.02337 -0.00577 -0.01234  0.00984  0.00004
    N4       Y    -0.01056 -0.00509  0.00997  0.04214  0.03891 -0.00026
    N4       Z     0.00003  0.00004  0.00002  0.00000 -0.00004 -0.00000
    N5       X    -0.03837 -0.07727 -0.01589 -0.00448  0.03450 -0.00159
    N5       Y    -0.02299 -0.03213  0.03051  0.00155  0.03303 -0.00040
    N5       Z     0.00011  0.00022  0.00002  0.00001 -0.00010  0.00001
    N6       X     0.05331  0.06592 -0.00918  0.00389 -0.00658  0.00095
    N6       Y    -0.00824  0.06831 -0.04110 -0.01499 -0.00387 -0.00020
    N6       Z     0.00064  0.00022  0.00007  0.00009 -0.00004  0.00000
    N7       X     0.01123 -0.00516 -0.00338 -0.00416  0.00436 -0.00027
    N7       Y     0.17675 -0.08428  0.01138  0.01179  0.00475  0.00004
    N7       Z    -0.00106  0.00046 -0.00016 -0.00013  0.00000 -0.00000
    C8       X    -0.07379 -0.11712 -0.03551 -0.03466  0.00682 -0.00292
    C8       Y    -0.01782 -0.01605  0.17968  0.04632  0.00915  0.00396
    C8       Z    -0.00006  0.00009 -0.00000  0.00000  0.00000  0.00001
    C9       X     0.02941  0.06315 -0.04018  0.12855 -0.01710 -0.00005
    C9       Y     0.03351  0.03993  0.02126 -0.18408  0.01545  0.00034
    C9       Z    -0.00009 -0.00012  0.00004 -0.00009  0.00001  0.00000
    C10      X     0.03838  0.06905  0.04082  0.00807 -0.00401  0.08385
    C10      Y     0.02220  0.00957 -0.17792 -0.02539 -0.01304 -0.01159
    C10      Z    -0.00011 -0.00021  0.00002  0.00001  0.00003 -0.00035
    C11      X     0.00610  0.02109  0.03300  0.00089 -0.11723 -0.00122
    C11      Y    -0.01355 -0.04408 -0.00449 -0.01445 -0.19345 -0.00013
    C11      Z    -0.00000 -0.00002 -0.00007  0.00000  0.00036  0.00001
    H12      X     0.03219  0.07562  0.10438  0.01812 -0.00153 -0.94656
    H12      Y    -0.08632 -0.04089  0.23203  0.03147  0.00498  0.10134
    H12      Z    -0.00017 -0.00028 -0.00045 -0.00009  0.00001  0.00393
    H13      X    -0.01048 -0.02414 -0.00596 -0.01751  0.00775 -0.00174
    H13      Y     0.01554 -0.02206  0.03132 -0.19914 -0.15741 -0.00021
    H13      Z     0.00000  0.00001 -0.00002  0.00021  0.00011 -0.00000
    H14      X     0.13074  0.21097  0.08468  0.00312 -0.17934  0.00852
    H14      Y     0.06517  0.11672  0.08610  0.00253 -0.07759 -0.00411
    H14      Z    -0.00034 -0.00053 -0.00028 -0.00001  0.00049 -0.00003
    H15      X     0.06355 -0.40663 -0.00794  0.05024  0.00729 -0.00158
    H15      Y    -0.00712 -0.22532 -0.04405  0.01566  0.00385 -0.00016
    H15      Z     0.00097 -0.00380  0.00013  0.00016  0.00011 -0.00002
  
  vibration #           37       38       39
                  -------- -------- --------
  frequencies      3290.07  3410.07  3444.59
  intensities        67.88   107.09   151.39
  reduc. mass         0.94     0.94     0.94
  force const         6.00     6.44     6.57
    O1       X     0.00033  0.00028 -0.00019
    O1       Y    -0.00031 -0.00025  0.00027
    O1       Z     0.00000 -0.00000  0.00000
    O2       X     0.00010  0.00027 -0.00011
    O2       Y     0.00003  0.00026 -0.00040
    O2       Z    -0.00000 -0.00000  0.00000
    O3       X    -0.00017 -0.00004  0.00011
    O3       Y    -0.00077 -0.00008  0.00018
    O3       Z     0.00000  0.00000 -0.00000
    N4       X    -0.00011  0.07059 -0.00093
    N4       Y    -0.00034 -0.00129  0.00035
    N4       Z     0.00000 -0.00016  0.00000
    N5       X     0.00010 -0.00037  0.03273
    N5       Y     0.00014 -0.00038 -0.06316
    N5       Z    -0.00000  0.00000 -0.00009
    N6       X     0.03590 -0.00009  0.00033
    N6       Y    -0.06029 -0.00006 -0.00008
    N6       Z     0.00045 -0.00000  0.00000
    N7       X     0.00093  0.00009 -0.00029
    N7       Y     0.00125  0.00007 -0.00015
    N7       Z     0.00000  0.00000 -0.00000
    C8       X     0.00015 -0.00034 -0.00059
    C8       Y     0.00142 -0.00018  0.00096
    C8       Z    -0.00001  0.00000  0.00000
    C9       X    -0.00027 -0.00061  0.00057
    C9       Y     0.00020 -0.00024 -0.00028
    C9       Z    -0.00000  0.00000 -0.00000
    C10      X     0.00017 -0.00018  0.00109
    C10      Y     0.00083  0.00023  0.00128
    C10      Z     0.00000  0.00000 -0.00000
    C11      X    -0.00037 -0.00056 -0.00048
    C11      Y     0.00011  0.00037  0.00007
    C11      Z     0.00000  0.00000  0.00000
    H12      X     0.00147  0.00153 -0.00712
    H12      Y    -0.00059 -0.00009 -0.00055
    H12      Z    -0.00000 -0.00000  0.00003
    H13      X     0.00099 -0.96048  0.00768
    H13      Y     0.00016  0.01387  0.00022
    H13      Z    -0.00000  0.00223 -0.00002
    H14      X     0.00106 -0.00454 -0.44591
    H14      Y    -0.00140  0.00720  0.85014
    H14      Z    -0.00000  0.00002  0.00122
    H15      X    -0.51536 -0.00041 -0.00097
    H15      Y     0.81114  0.00103  0.00123
    H15      Z    -0.00631 -0.00001 -0.00001
  
  Number of imaginary frequencies:   0
   
  Writing vibrational animation data to 20116_keto_isomer2.vib
  Writing IR vibrational spectrum data to 20116_keto_isomer2_vib.spm
  rotational symmetry number:  1

  rotational temperatures (K):      0.126869      0.031905      0.025494
   
  The Quasi-Harmonic approximation will be applied to compute
  vibrational constributions to thermodynamic properties.
  Frequencies will be adjusted to a minimum value of  100.00 cm^-1.

  vibrational temperatures:
       mode:      1        2        3        4        5        6
  temp. (K):   143.88   226.79   230.15   266.87   346.07   441.82
   
       mode:      7        8        9       10       11       12
  temp. (K):   490.03   572.19   579.01   613.85   745.35   787.74
   
       mode:     13       14       15       16       17       18
  temp. (K):   859.79   892.69   939.60   957.40  1060.73  1062.47
   
       mode:     19       20       21       22       23       24
  temp. (K):  1098.57  1249.01  1280.98  1334.24  1497.72  1593.58
   
       mode:     25       26       27       28       29       30
  temp. (K):  1653.79  1681.00  1888.16  1917.73  1945.42  2009.71
   
       mode:     31       32       33       34       35       36
  temp. (K):  2104.54  2116.16  2321.60  2370.19  2438.84  4416.11
   
       mode:     37       38       39
  temp. (K):  4733.67  4906.32  4955.99
   
   
  Thermodynamic properties calculated assuming an ideal gas

  In the table below, the units for temperature
  are kelvins, the units for U, H, and G are
  kcal/mol and the units for Cv and S are cal/(mol K)

  The zero point energy (ZPE):     60.341 kcal/mol
  is not included in U, H, or G in the table below
  
 
  =============================================================================
  Thermodynamic properties for P = 1.00E+00 atm, calculated at   1 temperatures


  T =   298.15 K, P = 1.00E+00 atm
   
                  U         Cv          S          H          G        ln(Q)
              =========  =========  =========  =========  =========  =========
  trans.          0.889      2.981     41.046      1.481    -10.757   18.15488
  rot.            0.889      2.981     30.222      0.889     -8.122   13.70821
  vib.            3.977     28.812     22.356      3.977     -2.689    4.53830
  elec.           0.000      0.000      0.000      0.000      0.000    0.00000
  ----------------------------------------------------------------------------
  total           5.754     34.774     93.623      6.347    -21.567   36.40139
   
   Total internal energy, Utot(SCFE + ZPE + U):    -599.352291 hartrees
   Total enthalpy, Htot (Utot + nRT), with n=1:    -599.351347 hartrees
    Total Gibbs free energy, Gtot (Htot - T*S):    -599.395831 hartrees
   
  end of program freq
   
 Time(freq)  user:        1.6  user+sys:        1.6  wallclock:        0.9

 Total cpu seconds     user:   24285.701   user+sys:   24285.701
  
 Total elapsed time:    6484 seconds

Job 20116_keto_isomer2 completed on vm-linux2 at Tue Jan 28 15:31:44 2025
