Job 20116_isomer1 started on vm-linux2 at Tue Jan 28 15:56:37 2025
jobid: vm-linux2-0-6798e214

  +--------------------------------------------------------------------+
  |  Jaguar version 11.2, release 117                                  |
  |                                                                    |
  |  Copyright Schrodinger, Inc.                                       |
  |  All Rights Reserved.                                              |
  |                                                                    |
  |  The following have contributed to Jaguar (listed alphabetically): |
  |  Mike Beachy, Art Bochevarov, Dale Braden, Yixiang Cao,            |
  |  Alan Chien, Chris Cortis, Rich Friesner, Bill Goddard,            |
  |  Hod Greeley, Tom Hughes, Leif Jacobson, Jean-Marc Langlois,       |
  |  Daniel Levine, Daniel Mainz, Rob Murphy, Dean Philipp,            |
  |  Tom Pollard, Murco Ringnalda, Mark Watson, Haoyu Yu.              |
  |                                                                    |
  |  Use of this program should be acknowledged in publications as:    |
  |                                                                    |
  |  Jaguar, version 11.2, Schrodinger, Inc., New York, NY, 2021.      |
  |                                                                    |
  |  A. D. Bochevarov, E. Harder, T. F. Hughes, J. R. Greenwood,       |
  |  D. A. Braden, D. M. Philipp, D. Rinaldo, M. D. Halls,             |
  |  J. Zhang, R. A. Friesner, "Jaguar: A High-Performance Quantum     |
  |  Chemistry Software Program with Strengths in Life and Materials   |
  |  Sciences", Int. J. Quantum Chem., 2013, 113(18), 2110-2142.       |
  +--------------------------------------------------------------------+
  
  start of program pre
  
  Job name: 20116_isomer1
  Executables used: /mnt/Data_4/SCHRODINGER_2021-2/jaguar-v11.2/bin/Linux-x86_64
  Temporary files : /home/vm/.schrodinger/tmp/20116_isomer1#vm-linux2-0-6798e214
  Maestro file (input):  20116_isomer1.mae
  Maestro file (output): 20116_isomer1.01.mae
  
 Contents of input file: &gen section only
 ----------------Contents start----------------
&gen
irder=1
iuhf=0
isolv=2
basis=CC-PVTZ(-F)++
massav=1
scalfr=0.95
dftname=M06-2X
ifreq=1
nogas=0
ncanorb=378
&
 -----------------Contents end-----------------
 
  basis set:             cc-pvtz(-f)++                   
  net molecular charge:    0
  multiplicity:            1
  
  Using up to   4 threads per process
  
  number of basis functions....          404
  
 Input geometry:
                                   angstroms
  atom               x                 y                 z
  O1           -1.8172850000     -1.4687530000     -0.0611960000 
  O2           -1.7465100000      3.1123850000      0.1437850000 
  O3            2.7554820000     -2.8415650000     -0.1109530000 
  N4           -1.7434900000      0.8112660000      0.0440660000 
  N5            0.2460060000      1.9894000000     -0.0301770000 
  N6            1.0003990000     -1.6269320000     -0.2770570000 
  N7            2.1527930000     -1.6226710000      0.1815400000 
  C8            0.3311190000     -0.3946850000     -0.1236760000 
  C9           -1.1390800000     -0.4608140000     -0.0549480000 
  C10           0.9478330000      0.8172460000     -0.1177380000 
  C11          -1.1457780000      2.0587500000      0.0629690000 
  H12           2.0247940000      0.9022000000     -0.1975660000 
  H13          -2.7543740000      0.8108190000      0.1068700000 
  H14           0.7152110000      2.8834020000     -0.0546520000 
  H15           3.6139320000     -2.7563290000      0.3315090000 
   
  principal moments of inertia:
        amu*angstrom^2:      194.79757      762.58694      952.99696
                g*cm^2: 3.23468939E-38 1.26630525E-37 1.58248849E-37
   
  rotational constants:
               cm^(-1):      0.08653922      0.02210585      0.01768907
                   GHz:      2.59438041      0.66271658      0.53030495
   
  Molecular weight:     156.10 amu
   
  Stoichiometry: C4N4H4O3
[running at reduced cpu priority]
  Molecular Point Group: C1      
  Point Group used: C1
  
  nuclear repulsion energy.......     588.765252531 hartrees
 
 Non-default options chosen:
   SCF calculation type: DFT(m06-2x)                 
   DFT=M06-2X (M06-2X)
   Solvation energy will be computed using PBF
   Vibrational frequencies and related properties will be computed
      from analytic second derivatives
   IR intensities will be computed
   Vibrational frequencies will be scaled by a factor of  0.950
   Naturally occuring average isotopic masses used 
   Thermochemical properties will be computed
   Solvent: water                                                           
   Internal dielectric constant:    1.000
   Continuum dielectric constant:  80.370
   Solvent probe molecule radius:   1.400
  
 Temporary integer options set:
     73=  2
  
   Fixing number of canonical orbitals to remain constant.
   Number of canonical orbitals to use:   378
  
  atom       vdw   vdw2    cov     mass  grid  daf  charge   basis
  O1        1.702  1.550  0.730   15.999    Y    Y      Y    cc-pvtz(-f)++
  O2        1.702  1.550  0.730   15.999    Y    Y      Y    cc-pvtz(-f)++
  O3        1.702  1.450  0.730   15.999    Y    Y      Y    cc-pvtz(-f)++
  N4        1.831  1.500  0.750   14.007    Y    Y      Y    cc-pvtz(-f)++
  N5        1.831  1.500  0.750   14.007    Y    Y      Y    cc-pvtz(-f)++
  N6        1.831  1.500  0.750   14.007    Y    Y      Y    cc-pvtz(-f)++
  N7        1.831  1.500  0.750   14.007    Y    Y      Y    cc-pvtz(-f)++
  C8        1.949  2.000  0.770   12.011    Y    Y      Y    cc-pvtz(-f)++
  C9        1.949  2.000  0.770   12.011    Y    Y      Y    cc-pvtz(-f)++
  C10       1.949  2.000  0.770   12.011    Y    Y      Y    cc-pvtz(-f)++
  C11       1.949  2.000  0.770   12.011    Y    Y      Y    cc-pvtz(-f)++
  H12       1.597  1.250  0.320    1.008    Y    Y      Y    cc-pvtz(-f)++
  H13       1.597  1.150  0.320    1.008    Y    Y      Y    cc-pvtz(-f)++
  H14       1.597  1.150  0.320    1.008    Y    Y      Y    cc-pvtz(-f)++
  H15       1.597  1.150  0.320    1.008    Y    Y      Y    cc-pvtz(-f)++
  
  end of program pre
   
 Time(pre)  user:        2.4  user+sys:        2.4  wallclock:        1.1
  
  start of program onee
  
  smallest eigenvalue of S:    4.604E-06
  Set cut 20/10 to   5.437780479437295E-004
  number of canonical orbitals.....          378
  end of program onee
   
 Time(onee)  user:        0.5  user+sys:        0.5  wallclock:        0.1
  
  start of program hfig
  
  initial wavefunction generated automatically from atomic wavefunctions
 
  Irreducible     Total no   No of occupied orbitals 
  representation  orbitals   Shell_1  Shell_2    ...
  No Symm          378         40
  ------------------------
  Orbital occupation/shell    1.000
 
  end of program hfig
   
 Time(hfig)  user:        0.7  user+sys:        0.7  wallclock:        0.2
  
  start of program probe
  
  end of program probe
   
 Time(probe)  user:        0.5  user+sys:        0.5  wallclock:        0.2
  
  start of program grid
  
   grid     grid set  grid #  grid sym
  ------    --------  ------  --------
  coarse        0        0        1
  medium        2        1        1
  fine          0        0        1
  ultrafine     4        2        1
  charge       -1        3        1
  gradient      4        2        1
  density       0        0        1
  DFT-fine    -11        4        1
  DFT-med.    -10        5        1
  DFT-grad    -12        6        1
  DFT-der2     -8        7        1
  DFT-cphf     -9        8        1
  LMP2-enrg     4        2        1
  LMP2-grad     2        1        1
  DFT-cphf2   -15        9        1
  PBF-dens      0        0        1
  plotting      0        0        1
  Rel-grad    -17        0        1
  
  number of gridpoints: 
     atom        O1       O2       O3       N4       N5       N6       N7
  grid # 1      734      734      644      531      524      624      621
  grid # 2      734      734      644      531      524      624      621
  grid # 3      365      369      233       54       52      153      110
  grid # 4     5654     5654     5654     5654     5654     5654     5654
  grid # 5     2152     2152     2152     2152     2152     2152     2152
  grid # 6    19580    19580    19580    19580    19580    19580    19580
  grid # 7    63040    63040    63040    62394    62394    62394    62394
  grid # 8     7568     7568     7568     8972     8972     8972     8972
  grid # 9     1434     1434     1434     3852     3852     3852     3852
   
  number of gridpoints: 
     atom        C8       C9      C10      C11      H12      H13      H14
  grid # 1      524      510      480      504      223      226      226
  grid # 2      524      510      480      504      222      224      225
  grid # 3       57       56       50       55      353      399      401
  grid # 4     5654     5654     5654     5654     5654     5654     5654
  grid # 5     2152     2152     2152     2152     2152     2152     2152
  grid # 6    19580    19580    19580    19580    19580    19580    19580
  grid # 7    62658    62658    62658    62658    66806    66806    66806
  grid # 8     9014     9014     9014     9014     9848     9848     9848
  grid # 9     3806     3806     3806     3806     2486     2486     2486
   
  number of gridpoints: 
     atom       H15    total
  grid # 1      229     7334
  grid # 2      228     7329
  grid # 3      490     3197
  grid # 4     5654    84810
  grid # 5     2152    32280
  grid # 6    19580   293700
  grid # 7    66806   956552
  grid # 8     9848   134040
  grid # 9     2486    44878
   
  end of program grid
   
 Time(grid)  user:        5.4  user+sys:        5.4  wallclock:        1.5
  
  start of program rwr
  
  end of program rwr
   
 Time(rwr)  user:        3.1  user+sys:        3.1  wallclock:        0.8
  
  start of program scf
  
 number of electrons..........         80
 number of alpha electrons....         40
 number of beta electrons.....         40
 number of orbitals, total....        378
 number of doubly-occ'd orbs..         40
 number of open shell orbs....          0
 number of occupied orbitals..         40
 number of virtual orbitals...        338
 number of hamiltonians.......          1
 number of shells.............          1
 SCF type: DFT=M06-2X (M06-2X)
 Energy computed with NOPS off.
 Convergence Criterion:
    Energy (econv):       1.00E-05
    RMS density (dconv):  5.00E-06
  
       i  u  d  i  g                   
       t  p  i  c  r                                 RMS    maximum
       e  d  i  u  i                       energy  density   DIIS  
       r  t  s  t  d       total energy    change  change    error 
  
etot    1  N  N  5  M    -597.55889962102           2.4E-03  1.1E-01
etot    2  Y  Y  6  M    -598.39028776187  8.3E-01  1.8E-03  8.3E-02
etot    3  Y  Y  6  M    -599.20636826135  8.2E-01  6.4E-04  4.9E-02
etot    4  N  Y  2  U    -599.44473129138  2.4E-01  4.3E-04  5.5E-03
etot    5  Y  Y  6  M    -599.45248582583  7.8E-03  1.1E-04  2.8E-03
etot    6  N  Y  2  U    -599.45383470482  1.3E-03  3.5E-05  1.6E-03
etot    7  N  Y  2  U    -599.45422317732  3.9E-04  8.7E-06  3.4E-04
etot    8  N  Y  2  U    -599.45424715150  2.4E-05  3.1E-06  9.4E-05
etot    9  N  N  2  U    -599.45424970652  2.6E-06  0.0E+00  0.0E+00
  
  
 Energy components, in hartrees:
   (A)  Nuclear repulsion............     588.76525253081
   (E)  Total one-electron terms.....   -1984.10938078943
   (F)    Electron-nuclear...........   -2579.88912585740
   (H)    Kinetic....................     595.77974506797
   (I)  Total two-electron terms.....     795.88987855210
   (J)    Coulomb....................     872.18907582237
   (K)    Exchange+Correlation.......     -76.29919727027
   (L)  Electronic energy............   -1188.21950223733  (E+I)
   (M)  -V/T.........................       2.00616755549  (-(A+F+I)/H)
   (N)  Total energy.................    -599.45424970652  (A+L)
   (O)  Gas phase energy.............    -599.45424970652
  
 SCFE: SCF energy: DFT(m06-2x)      -599.45424970652 hartrees   iterations:   9
  
 
 HOMO energy:    -0.31028
 LUMO energy:    -0.05422
 
  Orbital energies (hartrees): 
   -19.70164   -19.63141   -19.62578   -14.89338   -14.84348   -14.82983
   -14.82311   -10.72170   -10.68806   -10.64937   -10.61564    -1.27595
    -1.22333    -1.19137    -1.12917    -1.11298    -1.05667    -0.92902
    -0.82318    -0.77625    -0.76926    -0.67564    -0.66715    -0.62713
    -0.61418    -0.59306    -0.58392    -0.57198    -0.55422    -0.53920
    -0.51663    -0.50431    -0.48880    -0.46129    -0.41083    -0.39775
    -0.37190    -0.36599    -0.35982    -0.31028    -0.05422    -0.02200
    -0.00885    -0.00511     0.00558     0.01759     0.02176     0.03207
     0.03989     0.04724
 
  end of program scf
   
 Time(scf)  user:      108.0  user+sys:      108.0  wallclock:       27.8
  
  start of program ch
  
  gridpoints used for charge fit         3046
    out of a possible maximum of         3197
  
   Electrostatic potential fitting constrained to reproduce
     total charge:                yes
     dipole moment:               no 
     traceless quadrupole moment: no 
     traceless octupole moment:   no 
  
  Atomic charges from electrostatic potential: 
   
 Atom       O1           O2           O3           N4           N5      
 Charge   -0.48241     -0.51529     -0.34220     -0.35938     -0.30732
   
 Atom       N6           N7           C8           C9           C10     
 Charge   -0.11231     -0.08660      0.18760      0.43321     -0.15361
   
 Atom       C11          H12          H13          H14          H15     
 Charge    0.51802      0.18730      0.32320      0.33418      0.37560
  
  sum of atomic charges:    -0.000000
   
 RMS Error   2.04E-03 hartrees
 
  end of program ch
   
 Time(ch)  user:        3.2  user+sys:        3.2  wallclock:        1.8
  
  start of program post
  
  Writing input files for PBF
  end of program post
   
 Time(post)  user:        1.8  user+sys:        1.8  wallclock:        1.1

  start of program pbf

Pbf Version 4.10

Molecular surface area:      148.45410   [A2]
Reaction field energy:       -35.77800   [kT]

Solvent-accessible surface area:  312.67332 [A2]
Cavity energy:                      4.41004 [kT]

  Peak memory usage: 480 Mb

  end of program pbf

 Time(pbf)  user:        0.1  user+sys:        0.2  wallclock:        0.2
  
  start of program solv
  
   number of surface charges from PBF    1846
   sum of surface charges      0.00006
   
  nuclear repulsion energy.......     588.765252531 hartrees
  end of program solv
   
 Time(solv)  user:        0.9  user+sys:        0.9  wallclock:        0.3
  
  start of program scf
  
 Energy computed with NOPS off.
 Convergence Criterion:
    Energy (econv):       1.00E-05
    RMS density (dconv):  5.00E-06
  
       i  u  d  i  g                   
       t  p  i  c  r                                 RMS    maximum
       e  d  i  u  i                       energy  density   DIIS  
       r  t  s  t  d       total energy    change  change    error 
  
etot    1  N  N  2  U    -599.51895267583           2.1E-04  5.7E-03
etot    2  Y  Y  6  M    -599.52811048587  9.2E-03  7.3E-05  4.1E-03
etot    3  N  Y  2  U    -599.52590973319 -2.2E-03  2.8E-05  1.5E-03
etot    4  N  Y  2  U    -599.52617008632  2.6E-04  1.0E-05  3.5E-04
etot    5  N  Y  2  U    -599.52619050790  2.0E-05  4.2E-06  1.6E-04
etot    6  N  N  2  U    -599.52619589449  5.4E-06  0.0E+00  0.0E+00
  
  
 Energy components, in hartrees:
   (A)  Total zero-electron terms....     588.92243312362
   (B)    Nuclear-nuclear............     588.76525253081
   (C)    Nuclear-solvent............       0.15718059281
   (E)  Total one-electron terms.....   -1984.42279882756
   (F)    Electron-nuclear...........   -2579.95565936115
   (G)    Electron-solvent...........      -0.23631013790
   (H)    Kinetic....................     595.76917067149
   (I)  Total two-electron terms.....     795.97416980945
   (J)    Coulomb....................     872.28691870686
   (K)    Exchange+Correlation.......     -76.31274889741
   (L)  Electronic energy............   -1188.44862901811  (E+I)
   (N)  Total quantum mech. energy...    -599.52619589449  (A+L)
   (O)  Gas phase energy.............    -599.45424970652
   (P)  Solution phase energy........    -599.48246931926  (Q+R+S+T)
   (Q)    Total solute energy........    -599.44706634939  (N-C-G)
   (R)    Total solvent energy.......      -0.03956477255  (C/2+G/2)
   (S)    Solute cavity energy.......       0.00416180269
   (T)    First shell corr. factor...       0.00000000000
   (U)  Reorganization energy........       0.00718335713  (Q-O)
   (V)  Solvation energy.............      -0.02821961274  (P-O)
  
 SCFE:  Solution phase energy: DFT(m06-2x)       -599.48246931926 hartrees
        SCF iterations:   6
  
 
 HOMO energy:    -0.30991
 LUMO energy:    -0.05334
 
  Orbital energies (hartrees): 
   -19.70142   -19.63731   -19.63393   -14.89593   -14.83522   -14.83432
   -14.82175   -10.72476   -10.69464   -10.64380   -10.61265    -1.27902
    -1.22742    -1.20092    -1.13059    -1.11055    -1.05296    -0.92725
    -0.82000    -0.77618    -0.76293    -0.67450    -0.66387    -0.62790
    -0.60742    -0.59205    -0.58303    -0.57991    -0.55970    -0.55098
    -0.51853    -0.51084    -0.49239    -0.45924    -0.41473    -0.40614
    -0.37727    -0.37656    -0.36608    -0.30991    -0.05334    -0.01067
    -0.00809     0.00201     0.00867     0.02109     0.02736     0.03228
     0.03731     0.04857
 
  end of program scf
   
 Time(scf)  user:       65.1  user+sys:       65.1  wallclock:       17.0
  
  start of program sole
  
    SCRF                   solvation energy
  iteration          Hartrees            kcal/mol
     0               0.0000000            0.0000
     1              -0.0282196          -17.7081
  
  solvation energy not yet converged... 
  
  end of program sole
   
 Time(sole)  user:        0.2  user+sys:        0.2  wallclock:        0.1
  
  start of program ch
  
  gridpoints used for charge fit         3046
    out of a possible maximum of         3046
  
   Electrostatic potential fitting constrained to reproduce
     total charge:                yes
     dipole moment:               no 
     traceless quadrupole moment: no 
     traceless octupole moment:   no 
  
  Atomic charges from electrostatic potential: 
   
 Atom       O1           O2           O3           N4           N5      
 Charge   -0.59107     -0.61908     -0.42191     -0.41547     -0.36090
   
 Atom       N6           N7           C8           C9           C10     
 Charge   -0.17942     -0.06155      0.17470      0.52081     -0.10603
   
 Atom       C11          H12          H13          H14          H15     
 Charge    0.62066      0.21797      0.37687      0.39382      0.45059
  
  sum of atomic charges:     0.000000
   
 RMS Error   2.04E-03 hartrees
 
  end of program ch
   
 Time(ch)  user:        3.2  user+sys:        3.2  wallclock:        1.7
  
  start of program post
  
  Writing input files for PBF
  end of program post
   
 Time(post)  user:        1.7  user+sys:        1.7  wallclock:        1.0

  start of program pbf

Pbf Version 4.10

Molecular surface area:      148.45410   [A2]
Reaction field energy:       -54.90317   [kT]

Solvent-accessible surface area:  312.67332 [A2]
Cavity energy:                      4.41004 [kT]

  Peak memory usage: 480 Mb

  end of program pbf

 Time(pbf)  user:        0.2  user+sys:        0.2  wallclock:        0.2
  
  start of program solv
  
   number of surface charges from PBF    1846
   sum of surface charges      0.00009
   
  nuclear repulsion energy.......     588.765252531 hartrees
  end of program solv
   
 Time(solv)  user:        1.0  user+sys:        1.0  wallclock:        0.3
  
  start of program scf
  
 Energy computed with NOPS off.
 Convergence Criterion:
    Energy (econv):       1.00E-05
    RMS density (dconv):  5.00E-06
  
       i  u  d  i  g                   
       t  p  i  c  r                                 RMS    maximum
       e  d  i  u  i                       energy  density   DIIS  
       r  t  s  t  d       total energy    change  change    error 
  
etot    1  N  N  2  U    -599.54528054169           6.3E-05  1.4E-03
etot    2  Y  Y  6  M    -599.55031142335  5.0E-03  2.3E-05  1.3E-03
etot    3  N  Y  2  U    -599.54583783407 -4.5E-03  7.6E-06  3.5E-04
etot    4  N  Y  2  U    -599.54585343917  1.6E-05  3.1E-06  1.2E-04
etot    5  N  N  2  U    -599.54585521567  1.8E-06  0.0E+00  0.0E+00
  
  
 Energy components, in hartrees:
   (A)  Total zero-electron terms....     588.96606341880
   (B)    Nuclear-nuclear............     588.76525253081
   (C)    Nuclear-solvent............       0.20081088799
   (E)  Total one-electron terms.....   -1984.50368099645
   (F)    Electron-nuclear...........   -2579.96784529514
   (G)    Electron-solvent...........      -0.30401087949
   (H)    Kinetic....................     595.76817517818
   (I)  Total two-electron terms.....     795.99176236197
   (J)    Coulomb....................     872.30737940906
   (K)    Exchange+Correlation.......     -76.31561704708
   (L)  Electronic energy............   -1188.51191863448  (E+I)
   (N)  Total quantum mech. energy...    -599.54585521567  (A+L)
   (O)  Gas phase energy.............    -599.45424970652
   (P)  Solution phase energy........    -599.49009341724  (Q+R+S+T)
   (Q)    Total solute energy........    -599.44265522417  (N-C-G)
   (R)    Total solvent energy.......      -0.05159999575  (C/2+G/2)
   (S)    Solute cavity energy.......       0.00416180269
   (T)    First shell corr. factor...       0.00000000000
   (U)  Reorganization energy........       0.01159448234  (Q-O)
   (V)  Solvation energy.............      -0.03584371072  (P-O)
  
 SCFE:  Solution phase energy: DFT(m06-2x)       -599.49009341724 hartrees
        SCF iterations:   5
  
 
 HOMO energy:    -0.30981
 LUMO energy:    -0.05324
 
  Orbital energies (hartrees): 
   -19.70090   -19.63868   -19.63672   -14.89633   -14.83670   -14.83353
   -14.82106   -10.72486   -10.69638   -10.64324   -10.61186    -1.28002
    -1.22817    -1.20384    -1.13140    -1.10974    -1.05198    -0.92709
    -0.81941    -0.77625    -0.76157    -0.67448    -0.66318    -0.62845
    -0.60591    -0.59216    -0.58435    -0.58024    -0.56122    -0.55351
    -0.51869    -0.51294    -0.49384    -0.45838    -0.41595    -0.40766
    -0.37979    -0.37854    -0.36805    -0.30981    -0.05324    -0.01162
    -0.00595     0.00347     0.00960     0.02183     0.02758     0.03251
     0.03652     0.04933
 
  end of program scf
   
 Time(scf)  user:       51.4  user+sys:       51.4  wallclock:       13.5
  
  start of program sole
  
    SCRF                   solvation energy
  iteration          Hartrees            kcal/mol
     0               0.0000000            0.0000
     1              -0.0282196          -17.7081
     2              -0.0358437          -22.4923
  
  solvation energy not yet converged... 
  
  end of program sole
   
 Time(sole)  user:        0.2  user+sys:        0.2  wallclock:        0.0
  
  start of program ch
  
  gridpoints used for charge fit         3046
    out of a possible maximum of         3046
  
   Electrostatic potential fitting constrained to reproduce
     total charge:                yes
     dipole moment:               no 
     traceless quadrupole moment: no 
     traceless octupole moment:   no 
  
  Atomic charges from electrostatic potential: 
   
 Atom       O1           O2           O3           N4           N5      
 Charge   -0.61909     -0.63969     -0.44273     -0.42676     -0.36786
   
 Atom       N6           N7           C8           C9           C10     
 Charge   -0.21081     -0.04284      0.17159      0.53670     -0.08638
   
 Atom       C11          H12          H13          H14          H15     
 Charge    0.64241      0.22602      0.38663      0.40613      0.46669
  
  sum of atomic charges:     0.000000
   
 RMS Error   2.05E-03 hartrees
 
  end of program ch
   
 Time(ch)  user:        3.2  user+sys:        3.2  wallclock:        1.7
  
  start of program post
  
  Writing input files for PBF
  end of program post
   
 Time(post)  user:        1.7  user+sys:        1.7  wallclock:        1.0

  start of program pbf

Pbf Version 4.10

Molecular surface area:      148.45410   [A2]
Reaction field energy:       -60.86836   [kT]

Solvent-accessible surface area:  312.67332 [A2]
Cavity energy:                      4.41004 [kT]

  Peak memory usage: 480 Mb

  end of program pbf

 Time(pbf)  user:        0.1  user+sys:        0.2  wallclock:        0.2
  
  start of program solv
  
   number of surface charges from PBF    1846
   sum of surface charges      0.00010
   
  nuclear repulsion energy.......     588.765252531 hartrees
  end of program solv
   
 Time(solv)  user:        1.1  user+sys:        1.1  wallclock:        0.3
  
  start of program scf
  
 Energy computed with NOPS off.
 Convergence Criterion:
    Energy (econv):       1.00E-05
    RMS density (dconv):  5.00E-06
  
       i  u  d  i  g                   
       t  p  i  c  r                                 RMS    maximum
       e  d  i  u  i                       energy  density   DIIS  
       r  t  s  t  d       total energy    change  change    error 
  
etot    1  N  N  2  U    -599.55135734015           2.1E-05  5.1E-04
etot    2  N  Y  2  U    -599.55138113858  2.4E-05  8.0E-06  3.9E-04
etot    3  N  Y  2  U    -599.55141709456  3.6E-05  2.5E-06  1.2E-04
etot    4  N  N  2  U    -599.55141857645  1.5E-06  0.0E+00  0.0E+00
  
  
 Energy components, in hartrees:
   (A)  Total zero-electron terms....     588.98146117767
   (B)    Nuclear-nuclear............     588.76525253081
   (C)    Nuclear-solvent............       0.21620864686
   (E)  Total one-electron terms.....   -1984.52844019965
   (F)    Electron-nuclear...........   -2579.96611104904
   (G)    Electron-solvent...........      -0.32651183376
   (H)    Kinetic....................     595.76418268315
   (I)  Total two-electron terms.....     795.99556044553
   (J)    Coulomb....................     872.31143674662
   (K)    Exchange+Correlation.......     -76.31587630108
   (L)  Electronic energy............   -1188.53287975412  (E+I)
   (N)  Total quantum mech. energy...    -599.55141857645  (A+L)
   (O)  Gas phase energy.............    -599.45424970652
   (P)  Solution phase energy........    -599.49210518031  (Q+R+S+T)
   (Q)    Total solute energy........    -599.44111538955  (N-C-G)
   (R)    Total solvent energy.......      -0.05515159345  (C/2+G/2)
   (S)    Solute cavity energy.......       0.00416180269
   (T)    First shell corr. factor...       0.00000000000
   (U)  Reorganization energy........       0.01313431697  (Q-O)
   (V)  Solvation energy.............      -0.03785547379  (P-O)
  
 SCFE:  Solution phase energy: DFT(m06-2x)       -599.49210518031 hartrees
        SCF iterations:   4
  
 
 HOMO energy:    -0.30965
 LUMO energy:    -0.05317
 
  Orbital energies (hartrees): 
   -19.70228   -19.63814   -19.63781   -14.89758   -14.83688   -14.83251
   -14.82159   -10.72462   -10.69734   -10.64213   -10.61147    -1.28093
    -1.22808    -1.20487    -1.13193    -1.10922    -1.05181    -0.92697
    -0.81907    -0.77642    -0.76124    -0.67442    -0.66315    -0.62905
    -0.60543    -0.59227    -0.58477    -0.58012    -0.56193    -0.55394
    -0.51866    -0.51367    -0.49460    -0.45789    -0.41651    -0.40766
    -0.38083    -0.37907    -0.36888    -0.30965    -0.05317    -0.01211
    -0.00534     0.00374     0.00988     0.02208     0.02757     0.03270
     0.03639     0.04951
 
  end of program scf
   
 Time(scf)  user:       51.2  user+sys:       51.2  wallclock:       13.5
  
  start of program sole
  
    SCRF                   solvation energy
  iteration          Hartrees            kcal/mol
     0               0.0000000            0.0000
     1              -0.0282196          -17.7081
     2              -0.0358437          -22.4923
     3              -0.0378555          -23.7547
  
  solvation energy not yet converged... 
  
  end of program sole
   
 Time(sole)  user:        0.1  user+sys:        0.1  wallclock:        0.0
  
  start of program ch
  
  gridpoints used for charge fit         3046
    out of a possible maximum of         3046
  
   Electrostatic potential fitting constrained to reproduce
     total charge:                yes
     dipole moment:               no 
     traceless quadrupole moment: no 
     traceless octupole moment:   no 
  
  Atomic charges from electrostatic potential: 
   
 Atom       O1           O2           O3           N4           N5      
 Charge   -0.62765     -0.64377     -0.44840     -0.42910     -0.36792
   
 Atom       N6           N7           C8           C9           C10     
 Charge   -0.22439     -0.03311      0.17186      0.54033     -0.08192
   
 Atom       C11          H12          H13          H14          H15     
 Charge    0.64704      0.22884      0.38846      0.40932      0.47043
  
  sum of atomic charges:     0.000000
   
 RMS Error   2.05E-03 hartrees
 
  end of program ch
   
 Time(ch)  user:        2.8  user+sys:        2.8  wallclock:        1.4
  
  start of program post
  
  Writing input files for PBF
  end of program post
   
 Time(post)  user:        1.8  user+sys:        1.8  wallclock:        1.1

  start of program pbf

Pbf Version 4.10

Molecular surface area:      148.45410   [A2]
Reaction field energy:       -62.72552   [kT]

Solvent-accessible surface area:  312.67332 [A2]
Cavity energy:                      4.41004 [kT]

  Peak memory usage: 480 Mb

  end of program pbf

 Time(pbf)  user:        0.2  user+sys:        0.2  wallclock:        0.3
  
  start of program solv
  
   number of surface charges from PBF    1846
   sum of surface charges      0.00011
   
  nuclear repulsion energy.......     588.765252531 hartrees
  end of program solv
   
 Time(solv)  user:        1.1  user+sys:        1.1  wallclock:        0.4
  
  start of program scf
  
 Energy computed with NOPS off.
 Convergence Criterion:
    Energy (econv):       1.00E-05
    RMS density (dconv):  5.00E-06
  
       i  u  d  i  g                   
       t  p  i  c  r                                 RMS    maximum
       e  d  i  u  i                       energy  density   DIIS  
       r  t  s  t  d       total energy    change  change    error 
  
etot    1  N  N  2  U    -599.55310283394           7.6E-06  2.1E-04
etot    2  N  Y  2  U    -599.55310665751  3.8E-06  2.8E-06  1.3E-04
etot    3  N  N  2  U    -599.55311052558  3.9E-06  0.0E+00  0.0E+00
  
  
 Energy components, in hartrees:
   (A)  Total zero-electron terms....     588.98780485653
   (B)    Nuclear-nuclear............     588.76525253081
   (C)    Nuclear-solvent............       0.22255232572
   (E)  Total one-electron terms.....   -1984.54042314762
   (F)    Electron-nuclear...........   -2579.96924606606
   (G)    Electron-solvent...........      -0.33506749001
   (H)    Kinetic....................     595.76389040845
   (I)  Total two-electron terms.....     795.99950776551
   (J)    Coulomb....................     872.31555386385
   (K)    Exchange+Correlation.......     -76.31604609834
   (L)  Electronic energy............   -1188.54091538211  (E+I)
   (N)  Total quantum mech. energy...    -599.55311052558  (A+L)
   (O)  Gas phase energy.............    -599.45424970652
   (P)  Solution phase energy........    -599.49269114074  (Q+R+S+T)
   (Q)    Total solute energy........    -599.44059536128  (N-C-G)
   (R)    Total solvent energy.......      -0.05625758215  (C/2+G/2)
   (S)    Solute cavity energy.......       0.00416180269
   (T)    First shell corr. factor...       0.00000000000
   (U)  Reorganization energy........       0.01365434524  (Q-O)
   (V)  Solvation energy.............      -0.03844143422  (P-O)
  
 SCFE:  Solution phase energy: DFT(m06-2x)       -599.49269114074 hartrees
        SCF iterations:   3
  
 
 HOMO energy:    -0.30963
 LUMO energy:    -0.05312
 
  Orbital energies (hartrees): 
   -19.70209   -19.63860   -19.63827   -14.89711   -14.83758   -14.83198
   -14.82146   -10.72449   -10.69760   -10.64193   -10.61164    -1.28092
    -1.22809    -1.20534    -1.13205    -1.10903    -1.05170    -0.92701
    -0.81901    -0.77647    -0.76110    -0.67442    -0.66300    -0.62902
    -0.60525    -0.59230    -0.58502    -0.58008    -0.56201    -0.55411
    -0.51872    -0.51396    -0.49476    -0.45773    -0.41660    -0.40772
    -0.38128    -0.37925    -0.36907    -0.30963    -0.05312    -0.01230
    -0.00517     0.00384     0.00996     0.02213     0.02756     0.03275
     0.03636     0.04953
 
  end of program scf
   
 Time(scf)  user:       36.7  user+sys:       36.7  wallclock:        9.8
  
  start of program sole
  
    SCRF                   solvation energy
  iteration          Hartrees            kcal/mol
     0               0.0000000            0.0000
     1              -0.0282196          -17.7081
     2              -0.0358437          -22.4923
     3              -0.0378555          -23.7547
     4              -0.0384414          -24.1224
  
  solvation energy not yet converged... 
  
  end of program sole
   
 Time(sole)  user:        0.2  user+sys:        0.2  wallclock:        0.0
  
  start of program ch
  
  gridpoints used for charge fit         3046
    out of a possible maximum of         3046
  
   Electrostatic potential fitting constrained to reproduce
     total charge:                yes
     dipole moment:               no 
     traceless quadrupole moment: no 
     traceless octupole moment:   no 
  
  Atomic charges from electrostatic potential: 
   
 Atom       O1           O2           O3           N4           N5      
 Charge   -0.63020     -0.64430     -0.45041     -0.43004     -0.36771
   
 Atom       N6           N7           C8           C9           C10     
 Charge   -0.22944     -0.02973      0.17316      0.54067     -0.08094
   
 Atom       C11          H12          H13          H14          H15     
 Charge    0.64804      0.22996      0.38890      0.41039      0.47166
  
  sum of atomic charges:     0.000000
   
 RMS Error   2.06E-03 hartrees
 
  end of program ch
   
 Time(ch)  user:        2.8  user+sys:        2.8  wallclock:        1.5
  
  start of program post
  
  Writing input files for PBF
  end of program post
   
 Time(post)  user:        1.6  user+sys:        1.6  wallclock:        0.9

  start of program pbf

Pbf Version 4.10

Molecular surface area:      148.45410   [A2]
Reaction field energy:       -63.33209   [kT]

Solvent-accessible surface area:  312.67332 [A2]
Cavity energy:                      4.41004 [kT]

  Peak memory usage: 480 Mb

  end of program pbf

 Time(pbf)  user:        0.2  user+sys:        0.2  wallclock:        0.2
  
  start of program solv
  
   number of surface charges from PBF    1846
   sum of surface charges      0.00011
   
  nuclear repulsion energy.......     588.765252531 hartrees
  end of program solv
   
 Time(solv)  user:        0.8  user+sys:        0.8  wallclock:        0.2
  
  start of program scf
  
 Energy computed with NOPS off.
 Convergence Criterion:
    Energy (econv):       1.00E-05
    RMS density (dconv):  5.00E-06
  
       i  u  d  i  g                   
       t  p  i  c  r                                 RMS    maximum
       e  d  i  u  i                       energy  density   DIIS  
       r  t  s  t  d       total energy    change  change    error 
  
etot    1  N  N  2  U    -599.55365481993           3.6E-06  9.1E-05
etot    2  N  N  2  U    -599.55365436762 -4.5E-07  0.0E+00  0.0E+00
  
  
 Energy components, in hartrees:
   (A)  Total zero-electron terms....     588.99069822712
   (B)    Nuclear-nuclear............     588.76525253081
   (C)    Nuclear-solvent............       0.22544569631
   (E)  Total one-electron terms.....   -1984.54806901773
   (F)    Electron-nuclear...........   -2579.97631564302
   (G)    Electron-solvent...........      -0.33882772280
   (H)    Kinetic....................     595.76707434809
   (I)  Total two-electron terms.....     796.00371642299
   (J)    Coulomb....................     872.32027495642
   (K)    Exchange+Correlation.......     -76.31655853344
   (L)  Electronic energy............   -1188.54435259474  (E+I)
   (N)  Total quantum mech. energy...    -599.55365436762  (A+L)
   (O)  Gas phase energy.............    -599.45424970652
   (P)  Solution phase energy........    -599.49280155169  (Q+R+S+T)
   (Q)    Total solute energy........    -599.44027234113  (N-C-G)
   (R)    Total solvent energy.......      -0.05669101324  (C/2+G/2)
   (S)    Solute cavity energy.......       0.00416180269
   (T)    First shell corr. factor...       0.00000000000
   (U)  Reorganization energy........       0.01397736539  (Q-O)
   (V)  Solvation energy.............      -0.03855184517  (P-O)
  
 SCFE:  Solution phase energy: DFT(m06-2x)       -599.49280155169 hartrees
        SCF iterations:   2
  
 
 HOMO energy:    -0.30963
 LUMO energy:    -0.05320
 
  Orbital energies (hartrees): 
   -19.70215   -19.63816   -19.63717   -14.89816   -14.83622   -14.83298
   -14.82169   -10.72477   -10.69737   -10.64272   -10.61101    -1.28106
    -1.22811    -1.20494    -1.13193    -1.10927    -1.05187    -0.92695
    -0.81908    -0.77644    -0.76122    -0.67448    -0.66318    -0.62916
    -0.60541    -0.59229    -0.58485    -0.58012    -0.56205    -0.55405
    -0.51863    -0.51380    -0.49472    -0.45788    -0.41660    -0.40767
    -0.38097    -0.37920    -0.36901    -0.30963    -0.05320    -0.01224
    -0.00514     0.00385     0.00998     0.02214     0.02756     0.03273
     0.03636     0.04954
 
  end of program scf
   
 Time(scf)  user:       19.2  user+sys:       19.2  wallclock:        5.4
  
  start of program sole
  
    SCRF                   solvation energy
  iteration          Hartrees            kcal/mol
     0               0.0000000            0.0000
     1              -0.0282196          -17.7081
     2              -0.0358437          -22.4923
     3              -0.0378555          -23.7547
     4              -0.0384414          -24.1224
     5              -0.0385518          -24.1916
  
  stopping: solvation energy converged
  
  iterations:   5    sfinal:    -24.1916 kcal/mol
  
  end of program sole
   
 Time(sole)  user:        0.2  user+sys:        0.2  wallclock:        0.1
  
  start of program cutabab2
  
  end of program cutabab2
   
 Time(cutabab2)  user:        1.7  user+sys:        1.7  wallclock:        0.5
  
  start of program der2a
  
  end of program der2a
   
 Time(der2a)  user:       42.4  user+sys:       42.4  wallclock:       10.7
  
  start of program der2b
  
  end of program der2b
   
 Time(der2b)  user:     4196.8  user+sys:     4196.8  wallclock:     1074.9
  
  start of program der2nda
  
 
  end of program der2nda
   
 Time(der2nda)  user:       65.0  user+sys:       65.0  wallclock:       17.0
  
  start of program der2ndb
  
  end of program der2ndb
   
 Time(der2ndb)  user:    12670.2  user+sys:    12670.2  wallclock:     3675.2
  
  start of program rwr
  
  end of program rwr
   
 Time(rwr)  user:        3.2  user+sys:        3.2  wallclock:        0.9
  
  start of program cphfa
  
       3  vectors produced in CPHF
  
     v    i  j  k  i  g
     e    t  c  c  c  r
     c    e  o  o  u  i
     t    r  r  r  t  d       RMS  
  
     1    1  0  0  6  M     1.2E-02
     1    2  0  0  6  M     1.3E-03
     1    3  0  0  6  M     4.1E-04
     1    4  0  0  6  M     1.7E-04
     1    5  0  0  6  M     5.1E-05
     1    6  0  0  6  M     2.2E-05
  
     v    i  j  k  i  g
     e    t  c  c  c  r
     c    e  o  o  u  i
     t    r  r  r  t  d       RMS  
  
     2    1  0  0  6  M     1.0E-02
     2    2  0  0  6  M     8.2E-04
     2    3  0  0  6  M     3.5E-04
     2    4  0  0  6  M     1.3E-04
     2    5  0  0  6  M     5.3E-05
     2    6  0  0  6  M     2.3E-05
  
     v    i  j  k  i  g
     e    t  c  c  c  r
     c    e  o  o  u  i
     t    r  r  r  t  d       RMS  
  
     3    1  0  0  6  M     8.4E-03
     3    2  0  0  6  M     6.1E-04
     3    3  0  0  6  M     1.8E-04
     3    4  0  0  6  M     7.9E-05
     3    5  0  0  6  M     2.2E-05
  
  
  Atomic Polar Tensors (au): Total
  =========================
  
  APT for atom O1      
  --------------------------------------
       -1.0612      -0.6399      -0.0092
       -0.5965      -1.3713      -0.0207
        0.0037       0.0023      -0.4289
  --------------------------------------
  
  APT for atom O2      
  --------------------------------------
       -0.9979       0.8063       0.0514
        0.7021      -1.7952      -0.0799
        0.0634      -0.1058      -0.4584
  --------------------------------------
  
  APT for atom O3      
  --------------------------------------
       -0.8754       0.5744       0.0046
        1.0771      -1.3024       0.0823
        0.2847      -0.1773      -0.3188
  --------------------------------------
  
  APT for atom N4      
  --------------------------------------
       -0.4658       0.0738       0.0101
        0.0488      -1.5112      -0.0560
        0.0096      -0.0584      -0.2896
  --------------------------------------
  
  APT for atom N5      
  --------------------------------------
       -1.1047       1.1111       0.0598
        0.1713      -1.2719      -0.0202
        0.0556      -0.1167      -0.2447
  --------------------------------------
  
  APT for atom N6      
  --------------------------------------
       -0.4289       0.1613       0.0026
       -0.3010       0.1178      -0.0597
       -0.2432       0.2329      -0.1153
  --------------------------------------
  
  APT for atom N7      
  --------------------------------------
        0.6616      -0.5148       0.0278
       -0.9499       0.9388      -0.0205
       -0.1417       0.1011      -0.0028
  --------------------------------------
  
  APT for atom C8      
  --------------------------------------
       -0.3585      -0.7835      -0.0034
        0.0254      -0.6636       0.0328
        0.0901      -0.0684      -0.0751
  --------------------------------------
  
  APT for atom C9      
  --------------------------------------
        1.5830       0.4748      -0.0249
        0.4537       1.8746       0.0649
        0.0073      -0.0289       0.3567
  --------------------------------------
  
  APT for atom C10     
  --------------------------------------
        0.1575      -0.2342      -0.0316
       -0.1428       1.6077       0.0193
       -0.0541       0.1378       0.1065
  --------------------------------------
  
  APT for atom C11     
  --------------------------------------
        1.7861      -1.0656      -0.0926
       -0.5421       2.2785       0.1032
       -0.1231       0.1618       0.4116
  --------------------------------------
  
  APT for atom H12     
  --------------------------------------
        0.1309       0.0477       0.0079
        0.0225       0.1109      -0.0077
        0.0186      -0.0210       0.1418
  --------------------------------------
  
  APT for atom H13     
  --------------------------------------
        0.3848      -0.0147      -0.0044
        0.0042       0.1447      -0.0060
       -0.0062      -0.0047       0.2909
  --------------------------------------
  
  APT for atom H14     
  --------------------------------------
        0.2240       0.1955       0.0062
        0.1173       0.4020      -0.0084
        0.0259      -0.0178       0.3041
  --------------------------------------
  
  APT for atom H15     
  --------------------------------------
        0.5622      -0.1794       0.0227
       -0.0409       0.2865      -0.0461
        0.0717      -0.1058       0.3418
  --------------------------------------
  
  end of program cphfa
   
 Time(cphfa)  user:     6034.1  user+sys:     6034.1  wallclock:     1510.2
  
  start of program freq
  
  All frequencies are shown scaled by:  0.9500
  Thermochemical calculations use scaled frequencies.
   
  Number of frequencies:  39
  harmonic frequencies in cm**-1, reduced masses in amu,
  force constants in mDyne/A, and
  normal modes in cartesian coordinates:          39
  IR intensities in km/mol
  
  vibration #            1        2        3        4        5        6
                  -------- -------- -------- -------- -------- --------
  frequencies       102.81   158.93   177.06   205.84   262.77   317.71
  intensities         0.74     1.27     2.55    12.67     3.47     7.92
  reduc. mass         1.92     2.65     3.67     2.24     5.80     2.78
  force const         0.01     0.04     0.07     0.06     0.24     0.17
    O1       X     0.00475  0.10082  0.00743 -0.00813 -0.03064 -0.10221
    O1       Y    -0.00130 -0.01820  0.00612 -0.00736  0.01381  0.07805
    O1       Z    -0.06148  0.04158 -0.11913  0.03665 -0.01169  0.01917
    O2       X     0.00640 -0.06888 -0.02203  0.01524 -0.00343 -0.05830
    O2       Y    -0.00955 -0.01637  0.00238  0.00182  0.00448  0.02763
    O2       Z     0.11862 -0.00632 -0.09519 -0.09060 -0.01649  0.00682
    O3       X    -0.00812 -0.09689 -0.01617  0.01971 -0.01798  0.08927
    O3       Y    -0.00017 -0.10341 -0.02596  0.04488 -0.04890 -0.07646
    O3       Z     0.10187  0.01759 -0.03614  0.04786  0.10001  0.00243
    N4       X     0.00808  0.00822  0.01054  0.00955 -0.00190  0.00208
    N4       Y    -0.00660 -0.01167 -0.00808 -0.00685  0.00214  0.02940
    N4       Z     0.05904 -0.01493  0.17150  0.08324  0.01807  0.00173
    N5       X    -0.00378 -0.02460 -0.00861  0.01767 -0.00173 -0.03540
    N5       Y     0.00428  0.04834  0.01213 -0.01588 -0.00517  0.01579
    N5       Z    -0.09370  0.02071 -0.02422  0.09714  0.05537 -0.01008
    N6       X     0.00551  0.01997  0.00413  0.00318 -0.00595  0.09279
    N6       Y     0.00125  0.04300  0.00875  0.00528 -0.02606 -0.02052
    N6       Z    -0.02622 -0.04605  0.03645 -0.14561  0.06105 -0.05510
    N7       X    -0.01755 -0.00037  0.01576 -0.05799  0.08750  0.06655
    N7       Y     0.00902 -0.04184 -0.01486  0.00416  0.07030 -0.07572
    N7       Z     0.03384 -0.00443  0.00439  0.01265 -0.17381  0.02823
    C8       X     0.00178  0.04949  0.01214 -0.01401 -0.00278  0.02205
    C8       Y     0.00426  0.05563  0.00829 -0.00673 -0.00657 -0.02936
    C8       Z    -0.06955 -0.02907  0.06067 -0.09690 -0.05519 -0.00789
    C9       X     0.00406  0.05347  0.00979 -0.00605 -0.00753 -0.00822
    C9       Y    -0.00086  0.01365  0.00294 -0.00728 -0.00259  0.01328
    C9       Z    -0.03203 -0.00008  0.02824  0.00219 -0.01840 -0.00121
    C10      X    -0.00218  0.02002  0.00241  0.00121 -0.00810 -0.03034
    C10      Y     0.00571  0.06932  0.01418 -0.01783 -0.00086  0.00461
    C10      Z    -0.11333  0.00378  0.01871 -0.00161 -0.00061  0.00563
    C11      X     0.00472 -0.02914 -0.00753  0.01540 -0.00655 -0.03715
    C11      Y    -0.00410  0.00553  0.00247 -0.00658  0.00025  0.03716
    C11      Z     0.03448 -0.00275  0.01128  0.01918  0.01601 -0.00124
    H12      X    -0.00604  0.01885 -0.00011  0.00164 -0.00589 -0.03090
    H12      Y     0.00797  0.10697  0.02149 -0.02698  0.00370  0.03199
    H12      Z    -0.16363  0.01982 -0.01102 -0.00022  0.03222  0.01622
    H13      X     0.01399  0.00886  0.01068  0.01080 -0.00225  0.00290
    H13      Y    -0.01215 -0.04190 -0.01454  0.00111 -0.00207 -0.00502
    H13      Z     0.15363 -0.00696  0.17404  0.10298  0.01324  0.01682
    H14      X    -0.01139 -0.05180 -0.02440  0.02279  0.00325 -0.01305
    H14      Y     0.00684  0.06355  0.01690 -0.01860 -0.00659  0.00414
    H14      Z    -0.14549  0.05133 -0.15766  0.10011  0.09390 -0.00306
    H15      X    -0.03667 -0.10796 -0.00132 -0.03634  0.04578  0.06003
    H15      Y     0.00204 -0.18170 -0.05029  0.06260  0.03453 -0.09163
    H15      Z     0.15747  0.05314 -0.06082  0.15419 -0.03976  0.06463
  
  vibration #            7        8        9       10       11       12
                  -------- -------- -------- -------- -------- --------
  frequencies       386.34   393.60   414.62   452.12   517.88   534.98
  intensities        19.74    22.95    18.50     7.78    17.92   106.07
  reduc. mass         1.97     2.77     2.57     2.26     1.89     0.83
  force const         0.17     0.25     0.26     0.27     0.30     0.14
    O1       X    -0.02771 -0.09297 -0.06710 -0.00456  0.00590  0.00866
    O1       Y     0.03395  0.05042 -0.04541  0.00058  0.11689 -0.00663
    O1       Z    -0.01797  0.01872 -0.00045  0.03234  0.00366  0.00165
    O2       X    -0.05318 -0.07451  0.08916  0.01205  0.04421 -0.01247
    O2       Y    -0.04488 -0.12350  0.00990  0.01255 -0.04746  0.00623
    O2       Z    -0.02518  0.00913 -0.00716 -0.01282 -0.00458 -0.00035
    O3       X    -0.00557 -0.04638 -0.06781 -0.01253 -0.00647  0.02761
    O3       Y     0.00488  0.02526 -0.01776  0.00074  0.01241  0.02431
    O3       Z    -0.02000 -0.00479 -0.01162 -0.06746 -0.00083 -0.04883
    N4       X     0.03089  0.07962 -0.03001 -0.01055 -0.08992  0.00716
    N4       Y     0.00011 -0.02294 -0.03076 -0.00405 -0.01417  0.00775
    N4       Z    -0.02926  0.00362 -0.01002  0.02806  0.00393 -0.00073
    N5       X     0.03108  0.06718 -0.00452 -0.01012 -0.04319  0.00564
    N5       Y     0.01041  0.02634 -0.01432 -0.00822 -0.10101  0.00176
    N5       Z     0.12022 -0.04757  0.01289  0.02795 -0.00539 -0.00217
    N6       X    -0.00949  0.00019  0.09891  0.01313 -0.00182 -0.01963
    N6       Y    -0.00795  0.03873  0.11900 -0.00592  0.01002 -0.02198
    N6       Z     0.04771 -0.00503 -0.02985  0.12147 -0.00709  0.03528
    N7       X    -0.00103 -0.00649  0.07168  0.02848 -0.00092  0.01209
    N7       Y    -0.00517  0.03576  0.05909  0.00284  0.00826  0.01765
    N7       Z     0.03228  0.00019  0.03135  0.08931 -0.00539 -0.04321
    C8       X     0.01295  0.00287 -0.02112  0.00001  0.05208 -0.00636
    C8       Y     0.00126  0.01548  0.01324  0.00387  0.02442 -0.01000
    C8       Z     0.02183 -0.01273  0.03073 -0.16090  0.00650  0.00411
    C9       X     0.01081 -0.00029 -0.04440 -0.00587  0.02742 -0.00038
    C9       Y     0.00772 -0.00714 -0.05534  0.00121  0.08985 -0.00073
    C9       Z     0.03562 -0.01837  0.01588 -0.09793  0.00938  0.00234
    C10      X     0.00976  0.04256 -0.02481  0.00076  0.08469 -0.00566
    C10      Y     0.00776  0.00230  0.00891  0.00674 -0.00919 -0.00982
    C10      Z    -0.15798  0.05993 -0.01808 -0.02475  0.00010  0.00839
    C11      X     0.01958  0.06163  0.00776 -0.01312 -0.04826  0.00267
    C11      Y    -0.00705 -0.03632 -0.03421 -0.00314 -0.09287  0.01360
    C11      Z     0.04465 -0.02354  0.00500  0.00212 -0.00017 -0.00124
    H12      X    -0.00855  0.05360 -0.02827  0.01214  0.07922 -0.00491
    H12      Y     0.00816 -0.04456 -0.01593  0.01547  0.06400 -0.01799
    H12      Z    -0.41095  0.15768 -0.08945  0.12998 -0.00633  0.00790
    H13      X     0.02004  0.08534 -0.03368  0.00158 -0.09241  0.00722
    H13      Y     0.01589  0.01619 -0.00390 -0.02587 -0.08344  0.01232
    H13      Z    -0.21043  0.08147 -0.05717  0.22770 -0.02096 -0.00186
    H14      X     0.01709  0.07433 -0.03616 -0.01178 -0.13523  0.02056
    H14      Y     0.01308  0.02496  0.00066 -0.00440 -0.05558 -0.00682
    H14      Z    -0.06714  0.01468 -0.05420  0.13261 -0.00616 -0.03732
    H15      X    -0.00377 -0.04333 -0.08256  0.00424 -0.03787 -0.35791
    H15      Y    -0.02033 -0.01378 -0.18061 -0.09540 -0.02298 -0.35623
    H15      Z    -0.01856 -0.00493  0.04571 -0.08279  0.06640  0.77450
  
  vibration #           13       14       15       16       17       18
                  -------- -------- -------- -------- -------- --------
  frequencies       550.09   593.15   614.85   619.27   737.27   746.36
  intensities        55.59    49.77    39.21    81.62    20.18    40.33
  reduc. mass         0.72     1.42     1.20     0.63     2.23     6.43
  force const         0.13     0.29     0.27     0.14     0.71     2.11
    O1       X    -0.00560 -0.04602 -0.05653 -0.02261 -0.06195  0.01052
    O1       Y    -0.00002 -0.03656  0.02815  0.01845 -0.06027  0.01195
    O1       Z    -0.02073  0.00181  0.00770 -0.01125 -0.01440 -0.00978
    O2       X     0.00219  0.06430  0.05535  0.02328 -0.05260  0.01577
    O2       Y    -0.00050 -0.04216  0.04255  0.01838  0.07242 -0.01720
    O2       Z    -0.00364 -0.00670 -0.00047 -0.00192  0.01863  0.06983
    O3       X    -0.00241  0.09185 -0.02636 -0.01513 -0.03122  0.00314
    O3       Y     0.00326 -0.04643  0.03727  0.01911  0.03693 -0.00494
    O3       Z    -0.00417  0.00260 -0.00255  0.00361  0.00167 -0.00246
    N4       X     0.00478 -0.05051  0.09180  0.04005 -0.05162  0.00917
    N4       Y    -0.00470 -0.03233 -0.06960 -0.02760 -0.00431 -0.00237
    N4       Z     0.03944  0.00002  0.01593 -0.06872 -0.00140  0.06282
    N5       X    -0.00795  0.01404 -0.06739 -0.03008  0.04218 -0.00192
    N5       Y     0.00231  0.08585  0.02125  0.00196 -0.01613  0.00426
    N5       Z    -0.06212  0.00817 -0.00927  0.03243  0.00591  0.07639
    N6       X     0.00310 -0.05335 -0.02666 -0.01063  0.00388  0.00159
    N6       Y    -0.00033  0.00673 -0.03736 -0.01109 -0.03165 -0.00037
    N6       Z     0.00365  0.02129  0.00913 -0.00867 -0.00336  0.00337
    N7       X     0.00109 -0.03293 -0.02767 -0.01199  0.00307  0.00199
    N7       Y    -0.00024 -0.05501 -0.00523 -0.00154 -0.00433  0.00205
    N7       Z     0.00788 -0.02259 -0.00383 -0.01338 -0.00002  0.00424
    C8       X     0.00220 -0.00193  0.05319  0.02593  0.08250 -0.01418
    C8       Y     0.00235  0.09165 -0.01291 -0.01229  0.00735 -0.00127
    C8       Z     0.01348 -0.00187 -0.02763  0.07124 -0.02291 -0.01431
    C9       X     0.00224 -0.05738  0.09475  0.04706 -0.01930  0.00458
    C9       Y    -0.00459 -0.01720 -0.06823 -0.02713 -0.06234  0.01029
    C9       Z     0.04834 -0.00460 -0.00145  0.00581  0.05216  0.03429
    C10      X    -0.00208  0.03808 -0.02792 -0.01884  0.16868 -0.03183
    C10      Y     0.00396  0.10929  0.05861  0.01996  0.00115  0.00073
    C10      Z    -0.04801 -0.00788  0.02197 -0.02570  0.00009 -0.00955
    C11      X     0.00126  0.02303 -0.03918 -0.02091 -0.04484 -0.00751
    C11      Y    -0.00065 -0.05315 -0.01740 -0.00599  0.05210 -0.00032
    C11      Z    -0.01913 -0.00431  0.02114 -0.04130 -0.03543 -0.24410
    H12      X    -0.00206  0.04151 -0.03176 -0.03022  0.17085 -0.03087
    H12      Y     0.00894  0.10377  0.13976  0.05938  0.05529 -0.00721
    H12      Z    -0.03538  0.00730  0.05813 -0.13013 -0.00572  0.01276
    H13      X    -0.01069 -0.04916  0.07067  0.09320 -0.05344 -0.00065
    H13      Y     0.00904  0.03557 -0.18458 -0.13234 -0.02177  0.01040
    H13      Z    -0.21121  0.04937 -0.36667  0.76413  0.01895 -0.10174
    H14      X     0.06455 -0.09578 -0.11830 -0.03093  0.02027 -0.00726
    H14      Y    -0.01052  0.14716  0.04568  0.00637 -0.00485  0.00300
    H14      Z     0.88959  0.02004 -0.10719  0.19021 -0.03163 -0.07649
    H15      X    -0.01671  0.03951 -0.03115 -0.02259 -0.01832  0.00442
    H15      Y    -0.02249  0.07099  0.02471  0.01365 -0.00276 -0.00649
    H15      Z     0.02860  0.08622  0.00801  0.01864 -0.01837 -0.00425
  
  vibration #           19       20       21       22       23       24
                  -------- -------- -------- -------- -------- --------
  frequencies       767.35   841.26   931.09   932.68  1015.18  1066.95
  intensities        29.24    97.61    18.20    54.50   148.43     4.32
  reduc. mass         4.65     2.39     1.27     0.89     5.31     2.26
  force const         1.61     1.00     0.65     0.46     3.23     1.51
    O1       X    -0.00936  0.01003  0.00900  0.00811  0.00231  0.01676
    O1       Y    -0.01255 -0.00140  0.04337  0.02863  0.00527  0.00281
    O1       Z     0.05933  0.00611 -0.00120  0.00502 -0.00132 -0.00052
    O2       X    -0.01352  0.02792 -0.00075  0.00217 -0.00463 -0.00221
    O2       Y     0.02131 -0.04626  0.02492  0.01253  0.00595  0.03017
    O2       Z     0.00683 -0.00517 -0.00106  0.00273  0.00044  0.00145
    O3       X     0.00042 -0.07484 -0.00156  0.00780 -0.02861 -0.00389
    O3       Y     0.00416  0.08584 -0.00166 -0.02114  0.09251  0.00518
    O3       Z     0.00838  0.00903  0.00016 -0.00611  0.02504  0.00239
    N4       X     0.00438 -0.06475 -0.07070 -0.04997 -0.00490  0.05795
    N4       Y    -0.00936  0.02613 -0.07676 -0.04804 -0.01883 -0.12607
    N4       Z     0.06560  0.00959 -0.00190  0.00490 -0.00110 -0.00912
    N5       X     0.00867 -0.00277  0.10643  0.06873  0.01186 -0.06669
    N5       Y    -0.01589  0.09151  0.06744  0.05350 -0.01545  0.04289
    N5       Z     0.01321  0.00173  0.00709 -0.02285 -0.00273  0.00566
    N6       X    -0.00765  0.05229  0.00743 -0.00522  0.00588  0.01033
    N6       Y     0.01760 -0.13447 -0.00353 -0.01216  0.09186 -0.02432
    N6       Z    -0.01036 -0.02818 -0.00881  0.00307  0.04105 -0.00845
    N7       X    -0.00786  0.05651 -0.00178 -0.00535  0.05223  0.02294
    N7       Y    -0.00766 -0.03014  0.00544  0.03383 -0.18826  0.00106
    N7       Z    -0.01777  0.00455  0.00004  0.01338 -0.05274  0.00468
    C8       X     0.01995  0.04518 -0.03268 -0.02066 -0.00710 -0.04497
    C8       Y    -0.00119 -0.04967 -0.01259 -0.02057  0.02947  0.02053
    C8       Z     0.12645  0.02205  0.03059 -0.04122 -0.03064  0.00270
    C9       X    -0.00794 -0.03374  0.05497  0.03316  0.00223 -0.11093
    C9       Y    -0.00590  0.02475 -0.00535 -0.00170  0.00217  0.10411
    C9       Z    -0.21975 -0.02295  0.00749 -0.01589  0.00536  0.00919
    C10      X     0.03461 -0.03197 -0.03027 -0.00834 -0.02903  0.06586
    C10      Y    -0.00464  0.03019 -0.01348 -0.01009 -0.01782 -0.06513
    C10      Z    -0.03129  0.00429 -0.07962  0.12122  0.01712 -0.00270
    C11      X    -0.01643  0.03745 -0.05766 -0.03775  0.00112  0.04989
    C11      Y     0.01337 -0.02252 -0.00622 -0.00459  0.00556  0.04122
    C11      Z    -0.02333  0.00122  0.01342 -0.00846 -0.00184 -0.00121
    H12      X     0.03056 -0.03813  0.03157 -0.06221 -0.03300  0.06924
    H12      Y    -0.00055  0.09023 -0.26969 -0.09873 -0.12370 -0.09662
    H12      Z    -0.10351 -0.00778  0.44616 -0.67900 -0.10536 -0.01764
    H13      X    -0.00651 -0.06700 -0.07440 -0.05390 -0.00500  0.06062
    H13      Y    -0.02359  0.13053 -0.28075 -0.17440 -0.05443 -0.27306
    H13      Z    -0.10488  0.00712 -0.00329 -0.01496 -0.00466 -0.01731
    H14      X     0.01508 -0.05241  0.14644  0.10152  0.06831 -0.17623
    H14      Y    -0.01825  0.12167  0.05252  0.04342 -0.04736  0.10339
    H14      Z     0.06312  0.00502 -0.02726  0.04355  0.00123  0.00821
    H15      X    -0.00834 -0.03203 -0.00269  0.01411 -0.05293  0.01449
    H15      Y     0.03062 -0.09017 -0.00803 -0.02502  0.16371 -0.06068
    H15      Z     0.02030 -0.04663  0.00274 -0.01797  0.06018 -0.02047
  
  vibration #           25       26       27       28       29       30
                  -------- -------- -------- -------- -------- --------
  frequencies      1141.21  1185.57  1281.02  1331.24  1352.56  1362.42
  intensities        94.47    52.08   121.35   240.37    66.65    26.90
  reduc. mass         0.85     1.90     1.23     1.04     1.29     0.96
  force const         0.66     1.57     1.19     1.08     1.39     1.05
    O1       X    -0.00617  0.00199  0.01579  0.00263 -0.01488 -0.02011
    O1       Y     0.00153 -0.01020 -0.00199  0.01222 -0.00403 -0.06224
    O1       Z     0.00031 -0.00006 -0.00142  0.00023  0.00085 -0.00181
    O2       X    -0.00853 -0.00476  0.00775 -0.00632 -0.01760  0.03068
    O2       Y    -0.00498  0.00895 -0.00068  0.00169 -0.02140 -0.05186
    O2       Z     0.00016  0.00054 -0.00050  0.00042  0.00033 -0.00406
    O3       X     0.00481 -0.00789 -0.00814  0.03375 -0.00763  0.00755
    O3       Y    -0.01182  0.02655 -0.00762  0.03761 -0.00580  0.00528
    O3       Z    -0.00414  0.00932 -0.00605  0.03376 -0.00626  0.00578
    N4       X    -0.05355  0.04340  0.02952 -0.02430 -0.06367  0.03249
    N4       Y    -0.08110 -0.00585  0.02995 -0.00031  0.05344  0.11052
    N4       Z    -0.00060 -0.00236 -0.00057  0.00129  0.00675  0.00304
    N5       X     0.00863  0.05551  0.05709  0.00111 -0.00697  0.00023
    N5       Y    -0.02848 -0.08448  0.02788  0.01279 -0.04232  0.00984
    N5       Z    -0.00093 -0.00670 -0.00240  0.00022 -0.00062 -0.00004
    N6       X    -0.00922  0.00788  0.01740 -0.10620  0.02955 -0.02558
    N6       Y     0.01780 -0.08469  0.04212  0.05940 -0.02322  0.01750
    N6       Z     0.00647 -0.02651  0.01156 -0.02274  0.00442 -0.00215
    N7       X    -0.02207  0.04753  0.00134  0.03697 -0.00363 -0.00458
    N7       Y     0.01389 -0.01379 -0.01698 -0.01940 -0.00076  0.00305
    N7       Z    -0.00171  0.01330 -0.00623  0.00336 -0.00111 -0.00064
    C8       X     0.09580 -0.12091 -0.08246 -0.01643 -0.07220  0.08599
    C8       Y    -0.01269  0.10881 -0.12917 -0.04677  0.03492 -0.02193
    C8       Z    -0.00321  0.01443 -0.00273 -0.00184  0.00472 -0.00474
    C9       X    -0.03314 -0.01586 -0.02929  0.03351  0.08454 -0.04967
    C9       Y     0.03348  0.02247  0.02510 -0.02900 -0.04724  0.06301
    C9       Z     0.00343 -0.00052  0.00557 -0.00218 -0.00789  0.00625
    C10      X    -0.06885 -0.00505  0.04525  0.01105  0.00248 -0.01938
    C10      Y     0.00852  0.09593 -0.01313 -0.03168  0.00774  0.01687
    C10      Z     0.00011  0.00654 -0.00785 -0.00431  0.00160  0.00129
    C11      X     0.09092 -0.04900 -0.06407  0.03296  0.12943 -0.05868
    C11      Y     0.07028 -0.01490 -0.03393  0.01047  0.07308  0.00472
    C11      Z    -0.00126  0.00281  0.00247 -0.00198 -0.00597  0.00373
    H12      X    -0.11134 -0.01504  0.00668 -0.00541 -0.00439 -0.00257
    H12      Y     0.47199  0.20431  0.60391  0.19237  0.05487 -0.19736
    H12      Z     0.04667 -0.01731  0.04147  0.02472 -0.00802 -0.00142
    H13      X    -0.05732  0.04502  0.03054 -0.02530 -0.06704  0.03411
    H13      Y    -0.15224 -0.12342 -0.14555  0.00682 -0.45914 -0.60955
    H13      Z    -0.00330 -0.00905 -0.00942  0.00159 -0.01760 -0.03121
    H14      X     0.38780  0.21415 -0.11723 -0.11539 -0.34714  0.09934
    H14      Y    -0.23663 -0.17680  0.12961  0.07882  0.14052 -0.04451
    H14      Z    -0.03719 -0.02395  0.01502  0.01056  0.02601 -0.00506
    H15      X    -0.01282  0.05444 -0.07238  0.22538 -0.04212  0.04332
    H15      Y     0.05501 -0.21186  0.22347 -0.66947  0.12192 -0.12615
    H15      Z     0.01810 -0.07277  0.07719 -0.21165  0.03898 -0.04142
  
  vibration #           31       32       33       34       35       36
                  -------- -------- -------- -------- -------- --------
  frequencies      1429.57  1534.68  1574.28  1687.24  1708.09  3056.41
  intensities       102.03    36.09   146.94   998.78   820.03    14.83
  reduc. mass         1.72     3.96     3.09     4.79     4.70     0.93
  force const         2.07     5.49     4.51     8.04     8.08     5.12
    O1       X    -0.00164 -0.00302 -0.01878  0.07415 -0.02946  0.00002
    O1       Y     0.00986 -0.00262 -0.01876  0.10328 -0.04456 -0.00007
    O1       Z     0.00062  0.00007  0.00041  0.00053 -0.00035 -0.00001
    O2       X     0.03581  0.00246  0.00551 -0.02031 -0.05902 -0.00007
    O2       Y    -0.05165  0.00145  0.00208  0.03487  0.10441  0.00007
    O2       Z    -0.00457 -0.00014 -0.00037  0.00272  0.00796  0.00002
    O3       X    -0.00189  0.01440 -0.00540 -0.00099  0.00092  0.00011
    O3       Y    -0.00004  0.02495 -0.00939  0.00036 -0.00178  0.00015
    O3       Z    -0.00036  0.01653 -0.00765 -0.00056 -0.00034  0.00006
    N4       X    -0.01841  0.00565  0.01008  0.01127 -0.00903 -0.00007
    N4       Y     0.03320  0.00841  0.02705  0.03916  0.03008 -0.00021
    N4       Z     0.00261  0.00014  0.00070  0.00100  0.00193 -0.00000
    N5       X    -0.11633  0.01294  0.02843 -0.00492 -0.02674  0.00180
    N5       Y     0.08568  0.01253  0.03614  0.00594  0.02729 -0.00056
    N5       Z     0.01096  0.00014 -0.00131  0.00038  0.00292 -0.00026
    N6       X     0.00961  0.14347 -0.04273 -0.00343  0.00175 -0.00055
    N6       Y    -0.00049 -0.00298 -0.02406 -0.00503  0.00380 -0.00018
    N6       Z     0.00092  0.05810 -0.02102 -0.00214  0.00169 -0.00013
    N7       X     0.00638 -0.15566  0.05365  0.00056 -0.00184  0.00020
    N7       Y    -0.00490 -0.01490  0.00967  0.00252  0.00095  0.00006
    N7       Z    -0.00069 -0.06801  0.02565  0.00176 -0.00071  0.00012
    C8       X    -0.08399  0.00300  0.04638  0.02549 -0.01101  0.00280
    C8       Y     0.01068  0.04985  0.15027  0.01997 -0.01303  0.00380
    C8       Z     0.00372 -0.00137  0.00410  0.00056 -0.00063 -0.00016
    C9       X     0.05426 -0.00240  0.02315 -0.13810  0.05090  0.00006
    C9       Y    -0.04613  0.00102 -0.00424 -0.16361  0.06586  0.00044
    C9       Z    -0.00560 -0.00069 -0.00320  0.00043 -0.00010  0.00004
    C10      X     0.08928 -0.01157 -0.04456 -0.00073  0.00381 -0.08441
    C10      Y    -0.05262 -0.05909 -0.17730 -0.00152  0.00255 -0.00970
    C10      Z    -0.00787  0.00020 -0.00200  0.00016 -0.00019  0.00656
    C11      X    -0.01160 -0.01925 -0.04058  0.03342  0.10130  0.00106
    C11      Y     0.02975 -0.01276 -0.03018 -0.06806 -0.18937 -0.00027
    C11      Z     0.00323  0.00100  0.00188 -0.00474 -0.01388 -0.00016
    H12      X     0.09401 -0.03210 -0.10101 -0.00225  0.00567  0.94516
    H12      Y     0.05909  0.12495  0.27275  0.00461 -0.01005  0.08122
    H12      Z    -0.00605 -0.01244  0.01464  0.00137 -0.00142 -0.07227
    H13      X    -0.01763  0.00608  0.01132  0.01438 -0.01339  0.00244
    H13      Y    -0.05265  0.00075 -0.01485 -0.22993 -0.10696 -0.00020
    H13      Z    -0.00226 -0.00028 -0.00118 -0.01176 -0.00434 -0.00015
    H14      X     0.49741 -0.02866 -0.07885  0.05599  0.16599 -0.00738
    H14      Y    -0.24602  0.03609  0.09747 -0.02974 -0.07150 -0.00265
    H14      Z    -0.04500  0.00241  0.00625 -0.00470 -0.01559  0.00116
    H15      X    -0.00742  0.10593 -0.03606 -0.00283  0.00203 -0.00118
    H15      Y     0.02144 -0.33187  0.11234  0.00527  0.00033 -0.00003
    H15      Z     0.00784 -0.10683  0.03598  0.00116  0.00128 -0.00092
  
  vibration #           37       38       39
                  -------- -------- --------
  frequencies      3394.05  3424.05  3590.54
  intensities       167.87   262.12   352.87
  reduc. mass         0.94     0.94     0.95
  force const         6.37     6.48     7.20
    O1       X    -0.00041 -0.00031  0.00015
    O1       Y    -0.00037 -0.00040  0.00007
    O1       Z     0.00001  0.00000  0.00000
    O2       X    -0.00034 -0.00018  0.00011
    O2       Y     0.00047  0.00060 -0.00021
    O2       Z     0.00004  0.00003 -0.00004
    O3       X    -0.00008 -0.00033 -0.05438
    O3       Y    -0.00011 -0.00022 -0.00454
    O3       Z    -0.00010 -0.00026 -0.02750
    N4       X    -0.07110 -0.00287  0.00026
    N4       Y    -0.00053 -0.00031 -0.00006
    N4       Z     0.00440  0.00017 -0.00003
    N5       X    -0.00030  0.03402  0.00003
    N5       Y    -0.00188  0.06347 -0.00069
    N5       Z     0.00001 -0.00166 -0.00004
    N6       X     0.00015 -0.00007  0.00082
    N6       Y     0.00002  0.00011 -0.00027
    N6       Z     0.00001  0.00007  0.00019
    N7       X    -0.00001 -0.00006 -0.00065
    N7       Y     0.00005  0.00016  0.00008
    N7       Z     0.00001  0.00002 -0.00028
    C8       X     0.00031 -0.00056  0.00006
    C8       Y    -0.00032 -0.00147 -0.00015
    C8       Z    -0.00005 -0.00008  0.00008
    C9       X     0.00100  0.00074 -0.00025
    C9       Y     0.00035  0.00038 -0.00016
    C9       Z    -0.00006 -0.00006 -0.00003
    C10      X     0.00027  0.00062 -0.00007
    C10      Y     0.00036 -0.00117  0.00040
    C10      Z     0.00000 -0.00007  0.00009
    C11      X     0.00088 -0.00020 -0.00035
    C11      Y    -0.00013 -0.00099  0.00021
    C11      Z    -0.00006 -0.00003  0.00003
    H12      X    -0.00202 -0.00579  0.00164
    H12      Y    -0.00014  0.00036  0.00028
    H12      Z     0.00012  0.00056 -0.00003
    H13      X     0.95756  0.03070 -0.00275
    H13      Y     0.00210 -0.00100 -0.00012
    H13      Z    -0.05939 -0.00198  0.00016
    H14      X     0.01619 -0.45664  0.00361
    H14      Y     0.02753 -0.84243  0.00618
    H14      Z    -0.00088  0.02363 -0.00025
    H15      X     0.00233  0.00654  0.85752
    H15      Y     0.00028  0.00061  0.07764
    H15      Z     0.00121  0.00344  0.43746
  
  Number of imaginary frequencies:   0
   
  Writing vibrational animation data to 20116_isomer1.vib
  Writing IR vibrational spectrum data to 20116_isomer1_vib.spm
  rotational symmetry number:  1

  rotational temperatures (K):      0.124510      0.031805      0.025451
   
  The Quasi-Harmonic approximation will be applied to compute
  vibrational constributions to thermodynamic properties.
  Frequencies will be adjusted to a minimum value of  100.00 cm^-1.

  vibrational temperatures:
       mode:      1        2        3        4        5        6
  temp. (K):   147.92   228.66   254.75   296.16   378.07   457.11
   
       mode:      7        8        9       10       11       12
  temp. (K):   555.86   566.30   596.54   650.49   745.11   769.72
   
       mode:     13       14       15       16       17       18
  temp. (K):   791.46   853.41   884.63   890.99  1060.76  1073.85
   
       mode:     19       20       21       22       23       24
  temp. (K):  1104.04  1210.39  1339.63  1341.91  1460.62  1535.10
   
       mode:     25       26       27       28       29       30
  temp. (K):  1641.94  1705.77  1843.09  1915.35  1946.03  1960.21
   
       mode:     31       32       33       34       35       36
  temp. (K):  2056.83  2208.06  2265.04  2427.55  2457.56  4397.48
   
       mode:     37       38       39
  temp. (K):  4883.28  4926.44  5165.99
   
   
  Thermodynamic properties calculated assuming an ideal gas

  In the table below, the units for temperature
  are kelvins, the units for U, H, and G are
  kcal/mol and the units for Cv and S are cal/(mol K)

  The zero point energy (ZPE):     60.604 kcal/mol
  is not included in U, H, or G in the table below
  
 
  =============================================================================
  Thermodynamic properties for P = 1.00E+00 atm, calculated at   1 temperatures


  T =   298.15 K, P = 1.00E+00 atm
   
                  U         Cv          S          H          G        ln(Q)
              =========  =========  =========  =========  =========  =========
  trans.          0.889      2.981     41.046      1.481    -10.757   18.15488
  rot.            0.889      2.981     30.245      0.889     -8.129   13.72001
  vib.            3.916     28.931     21.683      3.916     -2.548    4.30107
  elec.           0.000      0.000      0.000      0.000      0.000    0.00000
  ----------------------------------------------------------------------------
  total           5.694     34.893     92.973      6.286    -21.434   36.17597
   
   Total internal energy, Utot(SCFE + ZPE + U):    -599.387149 hartrees
   Total enthalpy, Htot (Utot + nRT), with n=1:    -599.386205 hartrees
    Total Gibbs free energy, Gtot (Htot - T*S):    -599.430380 hartrees
   
  end of program freq
   
 Time(freq)  user:        1.9  user+sys:        1.9  wallclock:        1.0
  
  start of program post
  
  Writing input files for PBF
  end of program post
   
 Time(post)  user:        1.6  user+sys:        1.6  wallclock:        0.9

 Total cpu seconds     user:   23365.747   user+sys:   23365.747
  
 Total elapsed time:    6403 seconds

Job 20116_isomer1 completed on vm-linux2 at Tue Jan 28 17:43:20 2025
