Job 232005_B3LYP-D3_6-311Gppss_energy started on vm-linux1 at Mon May 26 16:22:08 2025
jobid: vm-linux1-0-68346aff

  +--------------------------------------------------------------------+
  |  Jaguar version 11.2, release 117                                  |
  |                                                                    |
  |  Copyright Schrodinger, Inc.                                       |
  |  All Rights Reserved.                                              |
  |                                                                    |
  |  The following have contributed to Jaguar (listed alphabetically): |
  |  Mike Beachy, Art Bochevarov, Dale Braden, Yixiang Cao,            |
  |  Alan Chien, Chris Cortis, Rich Friesner, Bill Goddard,            |
  |  Hod Greeley, Tom Hughes, Leif Jacobson, Jean-Marc Langlois,       |
  |  Daniel Levine, Daniel Mainz, Rob Murphy, Dean Philipp,            |
  |  Tom Pollard, Murco Ringnalda, Mark Watson, Haoyu Yu.              |
  |                                                                    |
  |  Use of this program should be acknowledged in publications as:    |
  |                                                                    |
  |  Jaguar, version 11.2, Schrodinger, Inc., New York, NY, 2021.      |
  |                                                                    |
  |  A. D. Bochevarov, E. Harder, T. F. Hughes, J. R. Greenwood,       |
  |  D. A. Braden, D. M. Philipp, D. Rinaldo, M. D. Halls,             |
  |  J. Zhang, R. A. Friesner, "Jaguar: A High-Performance Quantum     |
  |  Chemistry Software Program with Strengths in Life and Materials   |
  |  Sciences", Int. J. Quantum Chem., 2013, 113(18), 2110-2142.       |
  +--------------------------------------------------------------------+
  
  start of program pre
  
  Job name: 232005_B3LYP-D3_6-311Gppss_energy
  Executables used: /mnt/Data_3/SCHRODINGER_2021-2/jaguar-v11.2/bin/Linux-x86_64
  Temporary files : /mnt/Data_3/SCHRODINGER_2021-2_TMP/vm/232005_B3LYP-D3_6-311Gppss_energy#vm-linux1-0-68346aff
  Maestro file (input):  232005_B3LYP-D3_6-311Gppss_energy.mae
  Maestro file (output): 232005_B3LYP-D3_6-311Gppss_energy.01.mae
  
 Contents of input file: &gen section only
 ----------------Contents start----------------
&gen
isolv=2
basis=6-311G++**
molchg=1
dftname=B3LYP-D3
nogas=0
&
 -----------------Contents end-----------------
 
  basis set:             6-311g++**                      
  net molecular charge:    1
  multiplicity:            1
  
  Using up to   8 threads per process
  
  number of basis functions....          320
  Project from guess basis.. 6-31g**                         
  to current basis set ..... 6-311g++**                      
  
 Current basis set is different from that used 
 to obtain the input wave function.
 Another SCF will be run to converge the 
 wave function using the new basis.
  
 Input geometry:
                                   angstroms
  atom               x                 y                 z
  O2            0.2612890000      2.5459810000      0.1812800000 
  O3           -2.0737000000      1.0274120000      0.3038220000 
  O4           -1.6406850000     -3.4995220000     -0.0913980000 
  N5           -1.8096810000     -1.2160590000      0.1031670000 
  N6            0.2649620000     -2.2182940000     -0.1922740000 
  N7            2.8554170000      2.9786380000     -0.1132490000 
  C8            0.1769610000      0.1735010000      0.0011040000 
  C9            0.8589950000      1.4847510000      0.0297340000 
  C10          -1.2955100000      0.0933730000      0.1498180000 
  C11           0.8689550000     -1.0080770000     -0.1630790000 
  C12           2.4007960000      1.5404770000     -0.1248830000 
  C13          -1.1170460000     -2.3950660000     -0.0607980000 
  H14           1.9480970000     -1.0492160000     -0.2784650000 
  H15           2.8812550000      1.0148270000      0.7061720000 
  H16           2.7196650000      1.0807220000     -1.0648190000 
  H17          -2.8230120000     -1.3021010000      0.2021990000 
  H18           0.8150020000     -3.0698570000     -0.3154230000 
  H19           3.5812080000      3.1575620000      0.5967850000 
  H20           2.0444300000      3.5858400000      0.1016780000 
  H21           3.2331680000      3.2756740000     -1.0241110000 
   
  principal moments of inertia:
        amu*angstrom^2:      240.61061      937.12232     1171.70337
                g*cm^2: 3.99543275E-38 1.55612803E-37 1.94565897E-37
   
  rotational constants:
               cm^(-1):      0.07006187      0.01798872      0.01438728
                   GHz:      2.10040197      0.53928820      0.43131992
   
  Molecular weight:     170.06 amu
   
  Stoichiometry: C6N3H8O3
[running at reduced cpu priority]
  Molecular Point Group: C1      
  Point Group used: C1
  
  nuclear repulsion energy.......     697.875075530 hartrees
 
 Non-default options chosen:
   HF Initial guess: read from Jaguar .in file
   SCF calculation type: DFT(b3lyp-d3)               
   DFT=Becke_3_Parameter/HF+Slater+Becke88+VWN+LYP (B3LYP-D3)
   Solvation energy will be computed using PBF
   Solvent: water                                                           
   Internal dielectric constant:    1.000
   Continuum dielectric constant:  80.370
   Solvent probe molecule radius:   1.400
  
 Temporary integer options set:
     73=  2
  
  atom       vdw   vdw2    cov     mass  grid  daf  charge   basis
  O2        1.702  1.550  0.730   15.995    Y    Y      Y    6-311++g**
  O3        1.702  1.550  0.730   15.995    Y    Y      Y    6-311++g**
  O4        1.702  1.550  0.730   15.995    Y    Y      Y    6-311++g**
  N5        1.831  1.500  0.750   14.003    Y    Y      Y    6-311++g**
  N6        1.831  1.500  0.750   14.003    Y    Y      Y    6-311++g**
  N7        1.831  1.550  0.750   14.003    Y    Y      Y    6-311++g**
  C8        1.949  2.000  0.770   12.000    Y    Y      Y    6-311++g**
  C9        1.949  2.000  0.770   12.000    Y    Y      Y    6-311++g**
  C10       1.949  2.000  0.770   12.000    Y    Y      Y    6-311++g**
  C11       1.949  2.000  0.770   12.000    Y    Y      Y    6-311++g**
  C12       1.949  1.900  0.770   12.000    Y    Y      Y    6-311++g**
  C13       1.949  2.000  0.770   12.000    Y    Y      Y    6-311++g**
  H14       1.597  1.250  0.320    1.008    Y    Y      Y    6-311++g**
  H15       1.597  1.150  0.320    1.008    Y    Y      Y    6-311++g**
  H16       1.597  1.150  0.320    1.008    Y    Y      Y    6-311++g**
  H17       1.597  1.150  0.320    1.008    Y    Y      Y    6-311++g**
  H18       1.597  1.150  0.320    1.008    Y    Y      Y    6-311++g**
  H19       1.597  1.150  0.320    1.008    Y    Y      Y    6-311++g**
  H20       1.597  1.150  0.320    1.008    Y    Y      Y    6-311++g**
  H21       1.597  1.150  0.320    1.008    Y    Y      Y    6-311++g**
  
  end of program pre
   
 Time(pre)  user:        4.1  user+sys:        4.1  wallclock:        1.1
  
  start of program onee
  
  smallest eigenvalue of S:    1.982E-06
  number of canonical orbitals.....          309
  end of program onee
   
 Time(onee)  user:        0.7  user+sys:        0.7  wallclock:        0.1
  
  start of program hfig
  
  initial wavefunction read from .in file
  reading wavefunction from input file
  Project from guess basis.. 6-31g**                         
  to current basis set ..... 6-311g++**                      
          54  orbitals read from .in file
  virtual orbitals input are ignored
  Largest Normalization error   1.910352243456037E-004
  RMS Normalization error   2.278789924310067E-005
  warning: unnormalized input orbitals:           25
 
  Irreducible     Total no   No of occupied orbitals 
  representation  orbitals   Shell_1  Shell_2    ...
  No Symm          309         44
  ------------------------
  Orbital occupation/shell    1.000
 
  end of program hfig
   
 Time(hfig)  user:        1.1  user+sys:        1.1  wallclock:        0.2
  
  start of program probe
  
  end of program probe
   
 Time(probe)  user:        0.4  user+sys:        0.4  wallclock:        0.1
  
  start of program grid
  
   grid     grid set  grid #  grid sym
  ------    --------  ------  --------
  coarse        0        0        1
  medium        2        1        1
  fine          0        0        1
  ultrafine     4        2        1
  charge       -1        3        1
  gradient      4        2        1
  density       0        0        1
  DFT-fine    -11        4        1
  DFT-med.    -10        5        1
  DFT-grad    -12        6        1
  DFT-der2      0        0        1
  DFT-cphf      0        0        1
  LMP2-enrg     4        2        1
  LMP2-grad     2        1        1
  DFT-cphf2     0        0        1
  PBF-dens      0        0        1
  plotting      0        0        1
  Rel-grad    -17        0        1
  
  number of gridpoints: 
     atom        O2       O3       O4       N5       N6       N7       C8
  grid # 1      231      243      243      179      176      147      191
  grid # 2      486      501      511      348      342      274      365
  grid # 3      237      322      370       54       50        6       56
  grid # 4     5282     5282     5282     5282     5282     5282     5282
  grid # 5     2128     2128     2128     2128     2128     2128     2128
  grid # 6     5374     5374     5374     5374     5374     5374     5374
   
  number of gridpoints: 
     atom        C9      C10      C11      C12      C13      H14      H15
  grid # 1      182      185      172      163      178      151      151
  grid # 2      353      353      335      293      352      305      315
  grid # 3       26       58       50        6       54      257      288
  grid # 4     5282     5282     5282     5282     5282     5282     5282
  grid # 5     2128     2128     2128     2128     2128     2128     2128
  grid # 6     5374     5374     5374     5374     5374     5374     5374
   
  number of gridpoints: 
     atom       H16      H17      H18      H19      H20      H21    total
  grid # 1      150      155      155      148      143      150     3493
  grid # 2      313      317      317      310      298      312     7000
  grid # 3      278      397      400      360      259      358     3886
  grid # 4     5282     5282     5282     5282     5282     5282   105640
  grid # 5     2128     2128     2128     2128     2128     2128    42560
  grid # 6     5374     5374     5374     5374     5374     5374   107480
   
  end of program grid
   
 Time(grid)  user:        1.9  user+sys:        1.9  wallclock:        0.2
  
  start of program rwr
  
  end of program rwr
   
 Time(rwr)  user:        5.2  user+sys:        5.2  wallclock:        0.7
  
  start of program scf
  
 number of electrons..........         88
 number of alpha electrons....         44
 number of beta electrons.....         44
 number of orbitals, total....        309
 number of doubly-occ'd orbs..         44
 number of open shell orbs....          0
 number of occupied orbitals..         44
 number of virtual orbitals...        265
 number of hamiltonians.......          1
 number of shells.............          1
 SCF type: DFT=Becke_3_Parameter/HF+Slater+Becke88+VWN+LYP (B3LYP-D3)
 Energy computed with NOPS off.
 Convergence Criterion:
    Energy (econv):       5.00E-05
    RMS density (dconv):  1.00E-04
  
       i  u  d  i  g                   
       t  p  i  c  r                                 RMS    maximum
       e  d  i  u  i                       energy  density   DIIS  
       r  t  s  t  d       total energy    change  change    error 
  
etot    1  N  N  5  M    -623.27507016347           2.7E-03  6.8E-02
etot    2  Y  Y  6  M    -623.32976026496  5.5E-02  1.3E-03  1.6E-02
etot    3  N  Y  2  U    -623.24963404234 -8.0E-02  1.3E-03  4.3E-02
etot    4  N  Y  2  U    -623.34236469655  9.3E-02  6.3E-04  4.9E-03
etot    5  Y  Y  6  M    -623.34324758634  8.8E-04  3.9E-04  1.9E-03
etot    6  Y  Y  6  M    -623.34337439508  1.3E-04  1.2E-04  9.9E-04
etot    7  N  Y  2  U    -623.34342510442  5.1E-05  2.9E-05  1.0E-03
etot    8  N  N  2  U    -623.34345146215  2.6E-05  0.0E+00  0.0E+00
 
  Computing the dispersion energy correction...
  
  
 Energy components, in hartrees:
   (A)  Nuclear repulsion............     697.87507553043
   (E)  Total one-electron terms.....   -2219.37741978280
   (F)    Electron-nuclear...........   -2840.13645078879
   (H)    Kinetic....................     620.75903100598
   (I)  Total two-electron terms.....     898.15889279023
   (J)    Coulomb....................     980.00092660092
   (K)    Exchange+Correlation.......     -81.84203381069
   (L)  Electronic energy............   -1321.21852699258  (E+I)
   (M)  -V/T.........................       2.00416332317  (-(A+F+I)/H)
   (N0) D3 correction................      -0.01600755421
   (N)  Total energy.................    -623.35945901636  (A+L+N0)
   (O)  Gas phase energy.............    -623.35945901636
  
 SCFE: SCF energy: DFT(b3lyp-d3)      -623.35945901636 hartrees   iterations:   8
  
 
 HOMO energy:    -0.39425
 LUMO energy:    -0.23457
 
  Orbital energies (hartrees): 
   -19.29146   -19.23786   -19.23198   -14.64307   -14.54107   -14.49985
   -10.46012   -10.45348   -10.44223   -10.43157   -10.42568   -10.36358
    -1.23288    -1.21494    -1.19828    -1.17539    -1.13102    -1.06561
    -0.98342    -0.93797    -0.85172    -0.80771    -0.79715    -0.79484
    -0.79089    -0.72110    -0.70975    -0.69132    -0.66851    -0.65042
    -0.64142    -0.62199    -0.60794    -0.59475    -0.56672    -0.56156
    -0.55227    -0.53780    -0.51331    -0.45398    -0.42685    -0.41694
    -0.40893    -0.39425    -0.23457    -0.20236    -0.17438    -0.15711
    -0.15378    -0.12604    -0.12239    -0.11694    -0.10189    -0.09218
 
  end of program scf
   
 Time(scf)  user:       36.1  user+sys:       36.1  wallclock:        5.3
  
  start of program ch
  
  gridpoints used for charge fit         3683
    out of a possible maximum of         3886
  
   Electrostatic potential fitting constrained to reproduce
     total charge:                yes
     dipole moment:               no 
     traceless quadrupole moment: no 
     traceless octupole moment:   no 
  
  Atomic charges from electrostatic potential: 
   
 Atom       O2           O3           O4           N5           N6      
 Charge   -0.40757     -0.50480     -0.51212     -0.58251     -0.41000
   
 Atom       N7           C8           C9           C10          C11     
 Charge   -0.39399     -0.50505      0.52617      0.79859      0.19244
   
 Atom       C12          C13          H14          H15          H16     
 Charge    0.00218      0.74939      0.12360      0.09895      0.09337
   
 Atom       H17          H18          H19          H20          H21     
 Charge    0.36841      0.34875      0.35444      0.30737      0.35241
  
  sum of atomic charges:     1.000000
   
 RMS Error   1.04E-03 hartrees
 
  end of program ch
   
 Time(ch)  user:        4.5  user+sys:        4.5  wallclock:        1.2
  
  start of program post
  
  Writing input files for PBF
  end of program post
   
 Time(post)  user:        2.4  user+sys:        2.4  wallclock:        0.9

  start of program pbf

Pbf Version 4.10

Molecular surface area:      170.62291   [A2]
Reaction field energy:      -147.21830   [kT]

Solvent-accessible surface area:  341.65361 [A2]
Cavity energy:                      4.64787 [kT]

  Peak memory usage: 482 Mb

  end of program pbf

 Time(pbf)  user:        0.3  user+sys:        0.3  wallclock:        0.3
  
  start of program solv
  
   number of surface charges from PBF    2318
   sum of surface charges     -0.98640
   
  nuclear repulsion energy.......     697.875075530 hartrees
  end of program solv
   
 Time(solv)  user:        0.7  user+sys:        0.7  wallclock:        0.1
  
  start of program scf
  
 Energy computed with NOPS off.
 Convergence Criterion:
    Energy (econv):       5.00E-05
    RMS density (dconv):  1.00E-04
  
       i  u  d  i  g                   
       t  p  i  c  r                                 RMS    maximum
       e  d  i  u  i                       energy  density   DIIS  
       r  t  s  t  d       total energy    change  change    error 
  
etot    1  N  N  2  U    -623.62672379797           1.2E-03  1.3E-02
etot    2  Y  Y  6  M    -623.63156905997  4.8E-03  3.0E-04  1.4E-02
etot    3  Y  Y  6  M    -623.63975556988  8.2E-03  9.6E-05  3.4E-03
etot    4  N  Y  2  U    -623.64044413832  6.9E-04  3.8E-05  1.1E-03
etot    5  N  Y  2  U    -623.64050739562  6.3E-05  2.3E-05  4.1E-04
etot    6  N  N  2  U    -623.64051935929  1.2E-05  0.0E+00  0.0E+00
 
  Computing the dispersion energy correction...
  
  
 Energy components, in hartrees:
   (A)  Total zero-electron terms....     685.54934762782
   (B)    Nuclear-nuclear............     697.87507553043
   (C)    Nuclear-solvent............     -12.32572790260
   (E)  Total one-electron terms.....   -2207.37251088968
   (F)    Electron-nuclear...........   -2840.08234103491
   (G)    Electron-solvent...........      12.01485042594
   (H)    Kinetic....................     620.69497971928
   (I)  Total two-electron terms.....     898.18264390257
   (J)    Coulomb....................     980.03322684697
   (K)    Exchange+Correlation.......     -81.85058294439
   (L)  Electronic energy............   -1309.18986698711  (E+I)
   (N0) D3 correction................      -0.01600755421
   (N)  Total quantum mech. energy...    -623.65652691350  (A+L+N0)
   (O)  Gas phase energy.............    -623.35945901636
   (P)  Solution phase energy........    -623.49670192973  (Q+R+S+T)
   (Q)    Total solute energy........    -623.34564943684  (N-C-G)
   (R)    Total solvent energy.......      -0.15543873833  (C/2+G/2)
   (S)    Solute cavity energy.......       0.00438624544
   (T)    First shell corr. factor...       0.00000000000
   (U)  Reorganization energy........       0.01380957952  (Q-O)
   (V)  Solvation energy.............      -0.13724291336  (P-O)
  
 SCFE:  Solution phase energy: DFT(b3lyp-d3)       -623.49670192973 hartrees
        SCF iterations:   6
  
 
 HOMO energy:    -0.28134
 LUMO energy:    -0.09653
 
  Orbital energies (hartrees): 
   -19.14905   -19.13214   -19.12113   -14.43905   -14.40817   -14.38408
   -10.34884   -10.31952   -10.31068   -10.28796   -10.26389   -10.22948
    -1.10225    -1.08552    -1.06647    -1.00749    -1.00106    -0.94743
    -0.84261    -0.76768    -0.71998    -0.68548    -0.65224    -0.59969
    -0.58852    -0.58659    -0.56010    -0.54172    -0.50990    -0.50370
    -0.49889    -0.48682    -0.47186    -0.46263    -0.45588    -0.43560
    -0.43020    -0.40703    -0.38878    -0.32836    -0.31399    -0.30948
    -0.28247    -0.28134    -0.09653    -0.04983    -0.02738    -0.00984
    -0.00514     0.01038     0.01215     0.01939     0.03015     0.04173
 
  end of program scf
   
 Time(scf)  user:       24.2  user+sys:       24.2  wallclock:        3.7
  
  start of program sole
  
    SCRF                   solvation energy
  iteration          Hartrees            kcal/mol
     0               0.0000000            0.0000
     1              -0.1372429          -86.1212
  
  solvation energy not yet converged... 
  
  end of program sole
   
 Time(sole)  user:        0.3  user+sys:        0.3  wallclock:        0.0
  
  start of program ch
  
  gridpoints used for charge fit         3683
    out of a possible maximum of         3683
  
   Electrostatic potential fitting constrained to reproduce
     total charge:                yes
     dipole moment:               no 
     traceless quadrupole moment: no 
     traceless octupole moment:   no 
  
  Atomic charges from electrostatic potential: 
   
 Atom       O2           O3           O4           N5           N6      
 Charge   -0.51004     -0.65625     -0.65550     -0.65129     -0.45662
   
 Atom       N7           C8           C9           C10          C11     
 Charge   -0.35952     -0.58742      0.60998      0.93493      0.24003
   
 Atom       C12          C13          H14          H15          H16     
 Charge    0.01137      0.86760      0.15353      0.10558      0.10247
   
 Atom       H17          H18          H19          H20          H21     
 Charge    0.40401      0.39042      0.37326      0.31458      0.36888
  
  sum of atomic charges:     1.000000
   
 RMS Error   9.68E-04 hartrees
 
  end of program ch
   
 Time(ch)  user:        4.6  user+sys:        4.6  wallclock:        1.3
  
  start of program post
  
  Writing input files for PBF
  end of program post
   
 Time(post)  user:        2.5  user+sys:        2.5  wallclock:        0.9

  start of program pbf

Pbf Version 4.10

Molecular surface area:      170.62291   [A2]
Reaction field energy:      -181.66917   [kT]

Solvent-accessible surface area:  341.65361 [A2]
Cavity energy:                      4.64787 [kT]

  Peak memory usage: 482 Mb

  end of program pbf

 Time(pbf)  user:        0.3  user+sys:        0.3  wallclock:        0.3
  
  start of program solv
  
   number of surface charges from PBF    2318
   sum of surface charges     -0.98638
   
  nuclear repulsion energy.......     697.875075530 hartrees
  end of program solv
   
 Time(solv)  user:        0.8  user+sys:        0.8  wallclock:        0.1
  
  start of program scf
  
 Energy computed with NOPS off.
 Convergence Criterion:
    Energy (econv):       5.00E-05
    RMS density (dconv):  1.00E-04
  
       i  u  d  i  g                   
       t  p  i  c  r                                 RMS    maximum
       e  d  i  u  i                       energy  density   DIIS  
       r  t  s  t  d       total energy    change  change    error 
  
etot    1  N  N  2  U    -623.67576862799           3.1E-04  3.4E-03
etot    2  Y  Y  6  M    -623.67564491876 -1.2E-04  9.3E-05  4.6E-03
etot    3  Y  Y  6  M    -623.67654960725  9.0E-04  2.5E-05  6.2E-04
etot    4  N  Y  2  U    -623.67661291175  6.3E-05  9.7E-06  3.2E-04
etot    5  N  N  2  U    -623.67661764303  4.7E-06  0.0E+00  0.0E+00
 
  Computing the dispersion energy correction...
  
  
 Energy components, in hartrees:
   (A)  Total zero-electron terms....     685.60336330151
   (B)    Nuclear-nuclear............     697.87507553043
   (C)    Nuclear-solvent............     -12.27171222891
   (E)  Total one-electron terms.....   -2207.46778637800
   (F)    Electron-nuclear...........   -2840.07063762908
   (G)    Electron-solvent...........      11.91735426697
   (H)    Kinetic....................     620.68549698411
   (I)  Total two-electron terms.....     898.18780543346
   (J)    Coulomb....................     980.04172035561
   (K)    Exchange+Correlation.......     -81.85391492215
   (L)  Electronic energy............   -1309.27998094455  (E+I)
   (N0) D3 correction................      -0.01600755421
   (N)  Total quantum mech. energy...    -623.69262519724  (A+L+N0)
   (O)  Gas phase energy.............    -623.35945901636
   (P)  Solution phase energy........    -623.51105997083  (Q+R+S+T)
   (Q)    Total solute energy........    -623.33826723530  (N-C-G)
   (R)    Total solvent energy.......      -0.17717898097  (C/2+G/2)
   (S)    Solute cavity energy.......       0.00438624544
   (T)    First shell corr. factor...       0.00000000000
   (U)  Reorganization energy........       0.02119178106  (Q-O)
   (V)  Solvation energy.............      -0.15160095447  (P-O)
  
 SCFE:  Solution phase energy: DFT(b3lyp-d3)       -623.51105997083 hartrees
        SCF iterations:   5
  
 
 HOMO energy:    -0.28484
 LUMO energy:    -0.09658
 
  Orbital energies (hartrees): 
   -19.14976   -19.13789   -19.12951   -14.42749   -14.41057   -14.38878
   -10.35523   -10.32512   -10.30947   -10.28903   -10.25542   -10.22921
    -1.10815    -1.08671    -1.07332    -1.01076    -0.98996    -0.95202
    -0.84274    -0.76137    -0.72148    -0.68951    -0.65155    -0.59523
    -0.58473    -0.57658    -0.55860    -0.54222    -0.50732    -0.50499
    -0.50264    -0.48766    -0.46964    -0.46688    -0.45715    -0.43585
    -0.43475    -0.40557    -0.39093    -0.33528    -0.31852    -0.31676
    -0.28627    -0.28484    -0.09658    -0.05383    -0.01962    -0.00771
    -0.00552     0.00880     0.01827     0.02231     0.03054     0.04273
 
  end of program scf
   
 Time(scf)  user:       17.9  user+sys:       17.9  wallclock:        2.9
  
  start of program sole
  
    SCRF                   solvation energy
  iteration          Hartrees            kcal/mol
     0               0.0000000            0.0000
     1              -0.1372429          -86.1212
     2              -0.1516010          -95.1310
  
  solvation energy not yet converged... 
  
  end of program sole
   
 Time(sole)  user:        0.3  user+sys:        0.3  wallclock:        0.0
  
  start of program ch
  
  gridpoints used for charge fit         3683
    out of a possible maximum of         3683
  
   Electrostatic potential fitting constrained to reproduce
     total charge:                yes
     dipole moment:               no 
     traceless quadrupole moment: no 
     traceless octupole moment:   no 
  
  Atomic charges from electrostatic potential: 
   
 Atom       O2           O3           O4           N5           N6      
 Charge   -0.53467     -0.69350     -0.68640     -0.66559     -0.46121
   
 Atom       N7           C8           C9           C10          C11     
 Charge   -0.35289     -0.60695      0.62461      0.96343      0.26089
   
 Atom       C12          C13          H14          H15          H16     
 Charge    0.01436      0.89145      0.16203      0.10936      0.10735
   
 Atom       H17          H18          H19          H20          H21     
 Charge    0.40840      0.39866      0.37676      0.31252      0.37142
  
  sum of atomic charges:     1.000000
   
 RMS Error   9.58E-04 hartrees
 
  end of program ch
   
 Time(ch)  user:        4.6  user+sys:        4.6  wallclock:        1.3
  
  start of program post
  
  Writing input files for PBF
  end of program post
   
 Time(post)  user:        2.4  user+sys:        2.4  wallclock:        0.9

  start of program pbf

Pbf Version 4.10

Molecular surface area:      170.62291   [A2]
Reaction field energy:      -191.12296   [kT]

Solvent-accessible surface area:  341.65361 [A2]
Cavity energy:                      4.64787 [kT]

  Peak memory usage: 482 Mb

  end of program pbf

 Time(pbf)  user:        0.3  user+sys:        0.3  wallclock:        0.3
  
  start of program solv
  
   number of surface charges from PBF    2318
   sum of surface charges     -0.98636
   
  nuclear repulsion energy.......     697.875075530 hartrees
  end of program solv
   
 Time(solv)  user:        0.8  user+sys:        0.8  wallclock:        0.1
  
  start of program scf
  
 Energy computed with NOPS off.
 Convergence Criterion:
    Energy (econv):       5.00E-05
    RMS density (dconv):  1.00E-04
  
       i  u  d  i  g                   
       t  p  i  c  r                                 RMS    maximum
       e  d  i  u  i                       energy  density   DIIS  
       r  t  s  t  d       total energy    change  change    error 
  
etot    1  N  N  2  U    -623.68556921088           9.6E-05  1.1E-03
etot    2  Y  Y  6  M    -623.68547389917 -9.5E-05  3.4E-05  1.8E-03
etot    3  N  Y  2  U    -623.68563643470  1.6E-04  7.6E-06  1.6E-04
etot    4  N  N  2  U    -623.68563961875  3.2E-06  0.0E+00  0.0E+00
 
  Computing the dispersion energy correction...
  
  
 Energy components, in hartrees:
   (A)  Total zero-electron terms....     685.61031904354
   (B)    Nuclear-nuclear............     697.87507553043
   (C)    Nuclear-solvent............     -12.26475648689
   (E)  Total one-electron terms.....   -2207.47910626051
   (F)    Electron-nuclear...........   -2840.06292790613
   (G)    Electron-solvent...........      11.89911782646
   (H)    Kinetic....................     620.68470381916
   (I)  Total two-electron terms.....     898.18314759823
   (J)    Coulomb....................     980.03815504450
   (K)    Exchange+Correlation.......     -81.85500744627
   (L)  Electronic energy............   -1309.29595866228  (E+I)
   (N0) D3 correction................      -0.01600755421
   (N)  Total quantum mech. energy...    -623.70164717296  (A+L+N0)
   (O)  Gas phase energy.............    -623.35945901636
   (P)  Solution phase energy........    -623.51444159730  (Q+R+S+T)
   (Q)    Total solute energy........    -623.33600851253  (N-C-G)
   (R)    Total solvent energy.......      -0.18281933021  (C/2+G/2)
   (S)    Solute cavity energy.......       0.00438624544
   (T)    First shell corr. factor...       0.00000000000
   (U)  Reorganization energy........       0.02345050383  (Q-O)
   (V)  Solvation energy.............      -0.15498258094  (P-O)
  
 SCFE:  Solution phase energy: DFT(b3lyp-d3)       -623.51444159730 hartrees
        SCF iterations:   4
  
 
 HOMO energy:    -0.28514
 LUMO energy:    -0.09620
 
  Orbital energies (hartrees): 
   -19.14920   -19.13941   -19.13112   -14.42526   -14.41006   -14.39131
   -10.35647   -10.32741   -10.30983   -10.28755   -10.25330   -10.22969
    -1.10948    -1.08726    -1.07501    -1.01096    -0.98783    -0.95332
    -0.84265    -0.75999    -0.72144    -0.69068    -0.65140    -0.59504
    -0.58369    -0.57425    -0.55811    -0.54233    -0.50809    -0.50534
    -0.50244    -0.48759    -0.47124    -0.46598    -0.45744    -0.43600
    -0.43556    -0.40493    -0.39098    -0.33689    -0.31970    -0.31881
    -0.28735    -0.28514    -0.09620    -0.05494    -0.01811    -0.00827
    -0.00453     0.00849     0.01969     0.02303     0.03033     0.04280
 
  end of program scf
   
 Time(scf)  user:       16.9  user+sys:       16.9  wallclock:        2.8
  
  start of program sole
  
    SCRF                   solvation energy
  iteration          Hartrees            kcal/mol
     0               0.0000000            0.0000
     1              -0.1372429          -86.1212
     2              -0.1516010          -95.1310
     3              -0.1549826          -97.2530
  
  solvation energy not yet converged... 
  
  end of program sole
   
 Time(sole)  user:        0.3  user+sys:        0.3  wallclock:        0.0
  
  start of program ch
  
  gridpoints used for charge fit         3683
    out of a possible maximum of         3683
  
   Electrostatic potential fitting constrained to reproduce
     total charge:                yes
     dipole moment:               no 
     traceless quadrupole moment: no 
     traceless octupole moment:   no 
  
  Atomic charges from electrostatic potential: 
   
 Atom       O2           O3           O4           N5           N6      
 Charge   -0.54283     -0.70488     -0.69314     -0.66904     -0.46110
   
 Atom       N7           C8           C9           C10          C11     
 Charge   -0.35155     -0.61083      0.62878      0.97223      0.26486
   
 Atom       C12          C13          H14          H15          H16     
 Charge    0.01501      0.89706      0.16527      0.11101      0.10938
   
 Atom       H17          H18          H19          H20          H21     
 Charge    0.40855      0.40095      0.37747      0.31098      0.37181
  
  sum of atomic charges:     1.000000
   
 RMS Error   9.55E-04 hartrees
 
  end of program ch
   
 Time(ch)  user:        4.6  user+sys:        4.6  wallclock:        1.3
  
  start of program post
  
  Writing input files for PBF
  end of program post
   
 Time(post)  user:        2.4  user+sys:        2.4  wallclock:        0.9

  start of program pbf

Pbf Version 4.10

Molecular surface area:      170.62291   [A2]
Reaction field energy:      -193.73876   [kT]

Solvent-accessible surface area:  341.65361 [A2]
Cavity energy:                      4.64787 [kT]

  Peak memory usage: 482 Mb

  end of program pbf

 Time(pbf)  user:        0.3  user+sys:        0.3  wallclock:        0.3
  
  start of program solv
  
   number of surface charges from PBF    2318
   sum of surface charges     -0.98636
   
  nuclear repulsion energy.......     697.875075530 hartrees
  end of program solv
   
 Time(solv)  user:        0.7  user+sys:        0.7  wallclock:        0.1
  
  start of program scf
  
 Energy computed with NOPS off.
 Convergence Criterion:
    Energy (econv):       5.00E-05
    RMS density (dconv):  1.00E-04
  
       i  u  d  i  g                   
       t  p  i  c  r                                 RMS    maximum
       e  d  i  u  i                       energy  density   DIIS  
       r  t  s  t  d       total energy    change  change    error 
  
etot    1  N  N  2  U    -623.68806584295           2.9E-05  3.4E-04
etot    2  N  N  2  U    -623.68806108852 -4.8E-06  0.0E+00  0.0E+00
 
  Computing the dispersion energy correction...
  
  
 Energy components, in hartrees:
   (A)  Total zero-electron terms....     685.61064448396
   (B)    Nuclear-nuclear............     697.87507553043
   (C)    Nuclear-solvent............     -12.26443104647
   (E)  Total one-electron terms.....   -2207.48861819422
   (F)    Electron-nuclear...........   -2840.07615835818
   (G)    Electron-solvent...........      11.89516254977
   (H)    Kinetic....................     620.69237761420
   (I)  Total two-electron terms.....     898.18991262174
   (J)    Coulomb....................     980.04656767806
   (K)    Exchange+Correlation.......     -81.85665505632
   (L)  Electronic energy............   -1309.29870557248  (E+I)
   (N0) D3 correction................      -0.01600755421
   (N)  Total quantum mech. energy...    -623.70406864273  (A+L+N0)
   (O)  Gas phase energy.............    -623.35945901636
   (P)  Solution phase energy........    -623.51504814894  (Q+R+S+T)
   (Q)    Total solute energy........    -623.33480014603  (N-C-G)
   (R)    Total solvent energy.......      -0.18463424835  (C/2+G/2)
   (S)    Solute cavity energy.......       0.00438624544
   (T)    First shell corr. factor...       0.00000000000
   (U)  Reorganization energy........       0.02465887033  (Q-O)
   (V)  Solvation energy.............      -0.15558913258  (P-O)
  
 SCFE:  Solution phase energy: DFT(b3lyp-d3)       -623.51504814894 hartrees
        SCF iterations:   2
  
 
 HOMO energy:    -0.28533
 LUMO energy:    -0.09653
 
  Orbital energies (hartrees): 
   -19.14693   -19.13951   -19.12864   -14.42488   -14.41200   -14.39077
   -10.35716   -10.32684   -10.30974   -10.29027   -10.25352   -10.22946
    -1.10980    -1.08639    -1.07417    -1.01181    -0.98741    -0.95346
    -0.84303    -0.75996    -0.72206    -0.69076    -0.65157    -0.59514
    -0.58368    -0.57387    -0.55826    -0.54272    -0.50841    -0.50531
    -0.50210    -0.48768    -0.47110    -0.46569    -0.45714    -0.43573
    -0.43536    -0.40484    -0.39125    -0.33687    -0.31930    -0.31860
    -0.28653    -0.28533    -0.09653    -0.05473    -0.01785    -0.00845
    -0.00448     0.00843     0.01994     0.02312     0.03034     0.04275
 
  end of program scf
   
 Time(scf)  user:        9.6  user+sys:        9.6  wallclock:        1.9
  
  start of program sole
  
    SCRF                   solvation energy
  iteration          Hartrees            kcal/mol
     0               0.0000000            0.0000
     1              -0.1372429          -86.1212
     2              -0.1516010          -95.1310
     3              -0.1549826          -97.2530
     4              -0.1555891          -97.6337
  
  solvation energy not yet converged... 
  
  end of program sole
   
 Time(sole)  user:        0.3  user+sys:        0.3  wallclock:        0.0
  
  start of program ch
  
  gridpoints used for charge fit         3683
    out of a possible maximum of         3683
  
   Electrostatic potential fitting constrained to reproduce
     total charge:                yes
     dipole moment:               no 
     traceless quadrupole moment: no 
     traceless octupole moment:   no 
  
  Atomic charges from electrostatic potential: 
   
 Atom       O2           O3           O4           N5           N6      
 Charge   -0.54751     -0.70996     -0.69491     -0.67136     -0.46034
   
 Atom       N7           C8           C9           C10          C11     
 Charge   -0.35187     -0.61377      0.62942      0.97438      0.27144
   
 Atom       C12          C13          H14          H15          H16     
 Charge    0.01731      0.89939      0.16593      0.11164      0.11024
   
 Atom       H17          H18          H19          H20          H21     
 Charge    0.40856      0.40179      0.37780      0.30982      0.37199
  
  sum of atomic charges:     1.000000
   
 RMS Error   9.53E-04 hartrees
 
  end of program ch
   
 Time(ch)  user:        4.6  user+sys:        4.6  wallclock:        1.2
  
  start of program post
  
  Writing input files for PBF
  end of program post
   
 Time(post)  user:        2.4  user+sys:        2.4  wallclock:        0.9

  start of program pbf

Pbf Version 4.10

Molecular surface area:      170.62291   [A2]
Reaction field energy:      -195.05185   [kT]

Solvent-accessible surface area:  341.65361 [A2]
Cavity energy:                      4.64787 [kT]

  Peak memory usage: 482 Mb

  end of program pbf

 Time(pbf)  user:        0.3  user+sys:        0.3  wallclock:        0.4
  
  start of program solv
  
   number of surface charges from PBF    2318
   sum of surface charges     -0.98636
   
  nuclear repulsion energy.......     697.875075530 hartrees
  end of program solv
   
 Time(solv)  user:        0.8  user+sys:        0.8  wallclock:        0.1
  
  start of program scf
  
 Energy computed with NOPS off.
 Convergence Criterion:
    Energy (econv):       5.00E-05
    RMS density (dconv):  1.00E-04
  
       i  u  d  i  g                   
       t  p  i  c  r                                 RMS    maximum
       e  d  i  u  i                       energy  density   DIIS  
       r  t  s  t  d       total energy    change  change    error 
  
etot    1  N  N  2  U    -623.68927594222           1.7E-05  3.7E-04
etot    2  N  N  2  U    -623.68925471342 -2.1E-05  0.0E+00  0.0E+00
 
  Computing the dispersion energy correction...
  
  
 Energy components, in hartrees:
   (A)  Total zero-electron terms....     685.61216097110
   (B)    Nuclear-nuclear............     697.87507553043
   (C)    Nuclear-solvent............     -12.26291455933
   (E)  Total one-electron terms.....   -2207.47647261189
   (F)    Electron-nuclear...........   -2840.03217526873
   (G)    Electron-solvent...........      11.89321344675
   (H)    Kinetic....................     620.66248921009
   (I)  Total two-electron terms.....     898.17505692738
   (J)    Coulomb....................     980.02720906480
   (K)    Exchange+Correlation.......     -81.85215213742
   (L)  Electronic energy............   -1309.30141568452  (E+I)
   (N0) D3 correction................      -0.01600755421
   (N)  Total quantum mech. energy...    -623.70526226763  (A+L+N0)
   (O)  Gas phase energy.............    -623.35945901636
   (P)  Solution phase energy........    -623.51602546590  (Q+R+S+T)
   (Q)    Total solute energy........    -623.33556115505  (N-C-G)
   (R)    Total solvent energy.......      -0.18485055629  (C/2+G/2)
   (S)    Solute cavity energy.......       0.00438624544
   (T)    First shell corr. factor...       0.00000000000
   (U)  Reorganization energy........       0.02389786131  (Q-O)
   (V)  Solvation energy.............      -0.15656644954  (P-O)
  
 SCFE:  Solution phase energy: DFT(b3lyp-d3)       -623.51602546590 hartrees
        SCF iterations:   2
  
 
 HOMO energy:    -0.28489
 LUMO energy:    -0.09552
 
  Orbital energies (hartrees): 
   -19.15459   -19.14041   -19.13686   -14.42488   -14.40632   -14.39158
   -10.35546   -10.32840   -10.30978   -10.28352   -10.25177   -10.22949
    -1.10938    -1.08949    -1.07747    -1.00950    -0.98746    -0.95316
    -0.84175    -0.75917    -0.72011    -0.69058    -0.65070    -0.59456
    -0.58316    -0.57365    -0.55754    -0.54140    -0.50754    -0.50601
    -0.50289    -0.48740    -0.47252    -0.46598    -0.45835    -0.43696
    -0.43589    -0.40463    -0.39079    -0.33788    -0.32149    -0.31999
    -0.28974    -0.28489    -0.09552    -0.05571    -0.01766    -0.00799
    -0.00381     0.00853     0.02030     0.02347     0.02995     0.04311
 
  end of program scf
   
 Time(scf)  user:        9.5  user+sys:        9.5  wallclock:        1.8
  
  start of program sole
  
    SCRF                   solvation energy
  iteration          Hartrees            kcal/mol
     0               0.0000000            0.0000
     1              -0.1372429          -86.1212
     2              -0.1516010          -95.1310
     3              -0.1549826          -97.2530
     4              -0.1555891          -97.6337
     5              -0.1565664          -98.2469
  
  solvation energy not yet converged... 
  
  end of program sole
   
 Time(sole)  user:        0.3  user+sys:        0.3  wallclock:        0.1
  
  start of program ch
  
  gridpoints used for charge fit         3683
    out of a possible maximum of         3683
  
   Electrostatic potential fitting constrained to reproduce
     total charge:                yes
     dipole moment:               no 
     traceless quadrupole moment: no 
     traceless octupole moment:   no 
  
  Atomic charges from electrostatic potential: 
   
 Atom       O2           O3           O4           N5           N6      
 Charge   -0.54360     -0.70748     -0.69358     -0.67102     -0.46150
   
 Atom       N7           C8           C9           C10          C11     
 Charge   -0.35003     -0.61103      0.62913      0.97543      0.26219
   
 Atom       C12          C13          H14          H15          H16     
 Charge    0.01357      0.89779      0.16773      0.11221      0.11076
   
 Atom       H17          H18          H19          H20          H21     
 Charge    0.40836      0.40241      0.37751      0.30948      0.37169
  
  sum of atomic charges:     1.000000
   
 RMS Error   9.56E-04 hartrees
 
  end of program ch
   
 Time(ch)  user:        4.7  user+sys:        4.7  wallclock:        1.3
  
  start of program post
  
  Writing input files for PBF
  end of program post
   
 Time(post)  user:        2.4  user+sys:        2.4  wallclock:        0.9

  start of program pbf

Pbf Version 4.10

Molecular surface area:      170.62291   [A2]
Reaction field energy:      -194.26091   [kT]

Solvent-accessible surface area:  341.65361 [A2]
Cavity energy:                      4.64787 [kT]

  Peak memory usage: 482 Mb

  end of program pbf

 Time(pbf)  user:        0.3  user+sys:        0.3  wallclock:        0.3
  
  start of program solv
  
   number of surface charges from PBF    2318
   sum of surface charges     -0.98636
   
  nuclear repulsion energy.......     697.875075530 hartrees
  end of program solv
   
 Time(solv)  user:        1.3  user+sys:        1.3  wallclock:        0.2
  
  start of program scf
  
 Energy computed with NOPS off.
 Convergence Criterion:
    Energy (econv):       5.00E-05
    RMS density (dconv):  1.00E-04
  
       i  u  d  i  g                   
       t  p  i  c  r                                 RMS    maximum
       e  d  i  u  i                       energy  density   DIIS  
       r  t  s  t  d       total energy    change  change    error 
  
etot    1  N  N  2  U    -623.68853651327           3.3E-05  6.8E-04
etot    2  N  Y  2  U    -623.68844635936 -9.0E-05  2.8E-05  1.6E-03
etot    3  N  Y  2  U    -623.68855766712  1.1E-04  2.5E-06  1.4E-04
etot    4  N  N  2  U    -623.68855831935  6.5E-07  0.0E+00  0.0E+00
 
  Computing the dispersion energy correction...
  
  
 Energy components, in hartrees:
   (A)  Total zero-electron terms....     685.61331427209
   (B)    Nuclear-nuclear............     697.87507553043
   (C)    Nuclear-solvent............     -12.26176125833
   (E)  Total one-electron terms.....   -2207.48662614127
   (F)    Electron-nuclear...........   -2840.06259465580
   (G)    Electron-solvent...........      11.89242168983
   (H)    Kinetic....................     620.68354682469
   (I)  Total two-electron terms.....     898.18475354983
   (J)    Coulomb....................     980.03996214541
   (K)    Exchange+Correlation.......     -81.85520859558
   (L)  Electronic energy............   -1309.30187259144  (E+I)
   (N0) D3 correction................      -0.01600755421
   (N)  Total quantum mech. energy...    -623.70456587356  (A+L+N0)
   (O)  Gas phase energy.............    -623.35945901636
   (P)  Solution phase energy........    -623.51550984387  (Q+R+S+T)
   (Q)    Total solute energy........    -623.33522630506  (N-C-G)
   (R)    Total solvent energy.......      -0.18466978425  (C/2+G/2)
   (S)    Solute cavity energy.......       0.00438624544
   (T)    First shell corr. factor...       0.00000000000
   (U)  Reorganization energy........       0.02423271130  (Q-O)
   (V)  Solvation energy.............      -0.15605082751  (P-O)
  
 SCFE:  Solution phase energy: DFT(b3lyp-d3)       -623.51550984387 hartrees
        SCF iterations:   4
  
 
 HOMO energy:    -0.28517
 LUMO energy:    -0.09609
 
  Orbital energies (hartrees): 
   -19.14967   -19.13971   -19.13186   -14.42483   -14.40971   -14.39149
   -10.35656   -10.32774   -10.30986   -10.28740   -10.25272   -10.22960
    -1.10969    -1.08763    -1.07556    -1.01088    -0.98739    -0.95349
    -0.84254    -0.75958    -0.72130    -0.69082    -0.65126    -0.59495
    -0.58344    -0.57371    -0.55796    -0.54224    -0.50816    -0.50561
    -0.50238    -0.48753    -0.47170    -0.46576    -0.45759    -0.43630
    -0.43553    -0.40474    -0.39098    -0.33731    -0.32015    -0.31930
    -0.28784    -0.28517    -0.09609    -0.05522    -0.01772    -0.00831
    -0.00418     0.00846     0.02013     0.02330     0.03017     0.04288
 
  end of program scf
   
 Time(scf)  user:       20.8  user+sys:       20.8  wallclock:        3.3
  
  start of program sole
  
    SCRF                   solvation energy
  iteration          Hartrees            kcal/mol
     0               0.0000000            0.0000
     1              -0.1372429          -86.1212
     2              -0.1516010          -95.1310
     3              -0.1549826          -97.2530
     4              -0.1555891          -97.6337
     5              -0.1565664          -98.2469
     6              -0.1560508          -97.9234
  
  solvation energy not yet converged... 
  
  end of program sole
   
 Time(sole)  user:        0.3  user+sys:        0.3  wallclock:        0.0
  
  start of program ch
  
  gridpoints used for charge fit         3683
    out of a possible maximum of         3683
  
   Electrostatic potential fitting constrained to reproduce
     total charge:                yes
     dipole moment:               no 
     traceless quadrupole moment: no 
     traceless octupole moment:   no 
  
  Atomic charges from electrostatic potential: 
   
 Atom       O2           O3           O4           N5           N6      
 Charge   -0.54545     -0.70856     -0.69443     -0.67081     -0.46092
   
 Atom       N7           C8           C9           C10          C11     
 Charge   -0.35098     -0.61215      0.62948      0.97473      0.26674
   
 Atom       C12          C13          H14          H15          H16     
 Charge    0.01540      0.89848      0.16657      0.11183      0.11039
   
 Atom       H17          H18          H19          H20          H21     
 Charge    0.40845      0.40192      0.37764      0.30982      0.37184
  
  sum of atomic charges:     1.000000
   
 RMS Error   9.55E-04 hartrees
 
  end of program ch
   
 Time(ch)  user:        4.6  user+sys:        4.6  wallclock:        1.3
  
  start of program post
  
  Writing input files for PBF
  end of program post
   
 Time(post)  user:        2.4  user+sys:        2.4  wallclock:        0.9

  start of program pbf

Pbf Version 4.10

Molecular surface area:      170.62291   [A2]
Reaction field energy:      -194.61632   [kT]

Solvent-accessible surface area:  341.65361 [A2]
Cavity energy:                      4.64787 [kT]

  Peak memory usage: 482 Mb

  end of program pbf

 Time(pbf)  user:        0.3  user+sys:        0.3  wallclock:        0.3
  
  start of program solv
  
   number of surface charges from PBF    2318
   sum of surface charges     -0.98636
   
  nuclear repulsion energy.......     697.875075530 hartrees
  end of program solv
   
 Time(solv)  user:        0.8  user+sys:        0.8  wallclock:        0.1
  
  start of program scf
  
 Energy computed with NOPS off.
 Convergence Criterion:
    Energy (econv):       5.00E-05
    RMS density (dconv):  1.00E-04
  
       i  u  d  i  g                   
       t  p  i  c  r                                 RMS    maximum
       e  d  i  u  i                       energy  density   DIIS  
       r  t  s  t  d       total energy    change  change    error 
  
etot    1  N  N  2  U    -623.68888306000           7.1E-06  1.2E-04
etot    2  N  N  2  U    -623.68888213057 -9.3E-07  0.0E+00  0.0E+00
 
  Computing the dispersion energy correction...
  
  
 Energy components, in hartrees:
   (A)  Total zero-electron terms....     685.61202023451
   (B)    Nuclear-nuclear............     697.87507553043
   (C)    Nuclear-solvent............     -12.26305529591
   (E)  Total one-electron terms.....   -2207.48689049620
   (F)    Electron-nuclear...........   -2840.06570134934
   (G)    Electron-solvent...........      11.89311486675
   (H)    Kinetic....................     620.68569598638
   (I)  Total two-electron terms.....     898.18598813112
   (J)    Coulomb....................     980.04163392602
   (K)    Exchange+Correlation.......     -81.85564579491
   (L)  Electronic energy............   -1309.30090236509  (E+I)
   (N0) D3 correction................      -0.01600755421
   (N)  Total quantum mech. energy...    -623.70488968478  (A+L+N0)
   (O)  Gas phase energy.............    -623.35945901636
   (P)  Solution phase energy........    -623.51553322476  (Q+R+S+T)
   (Q)    Total solute energy........    -623.33494925562  (N-C-G)
   (R)    Total solvent energy.......      -0.18497021458  (C/2+G/2)
   (S)    Solute cavity energy.......       0.00438624544
   (T)    First shell corr. factor...       0.00000000000
   (U)  Reorganization energy........       0.02450976074  (Q-O)
   (V)  Solvation energy.............      -0.15607420840  (P-O)
  
 SCFE:  Solution phase energy: DFT(b3lyp-d3)       -623.51553322476 hartrees
        SCF iterations:   2
  
 
 HOMO energy:    -0.28521
 LUMO energy:    -0.09618
 
  Orbital energies (hartrees): 
   -19.14864   -19.13992   -19.13090   -14.42478   -14.41074   -14.39123
   -10.35689   -10.32747   -10.30970   -10.28842   -10.25281   -10.22931
    -1.10984    -1.08720    -1.07516    -1.01128    -0.98733    -0.95353
    -0.84263    -0.75961    -0.72156    -0.69083    -0.65131    -0.59500
    -0.58348    -0.57368    -0.55806    -0.54238    -0.50829    -0.50558
    -0.50225    -0.48756    -0.47159    -0.46566    -0.45742    -0.43617
    -0.43543    -0.40471    -0.39108    -0.33728    -0.31993    -0.31916
    -0.28743    -0.28521    -0.09618    -0.05508    -0.01770    -0.00837
    -0.00422     0.00845     0.02014     0.02328     0.03019     0.04286
 
  end of program scf
   
 Time(scf)  user:        9.3  user+sys:        9.3  wallclock:        1.9
  
  start of program sole
  
    SCRF                   solvation energy
  iteration          Hartrees            kcal/mol
     0               0.0000000            0.0000
     1              -0.1372429          -86.1212
     2              -0.1516010          -95.1310
     3              -0.1549826          -97.2530
     4              -0.1555891          -97.6337
     5              -0.1565664          -98.2469
     6              -0.1560508          -97.9234
     7              -0.1560742          -97.9380
  
  stopping: solvation energy converged
  
  iterations:   7    sfinal:    -97.9380 kcal/mol
  
  end of program sole
   
 Time(sole)  user:        0.3  user+sys:        0.3  wallclock:        0.0
  
  start of program post
  
  Writing input files for PBF
  end of program post
   
 Time(post)  user:        2.4  user+sys:        2.4  wallclock:        0.9

 Total cpu seconds     user:     170.209   user+sys:     170.209
  
 Total elapsed time:    50 seconds

Job 232005_B3LYP-D3_6-311Gppss_energy completed on vm-linux1 at Mon May 26 16:22:58 2025
