Job jag_232005bond_opt_B3LYP-D3_6-31Gss started on vm-linux1 at Mon May 26 14:16:57 2025
jobid: vm-linux1-0-68344da7

  +--------------------------------------------------------------------+
  |  Jaguar version 11.2, release 117                                  |
  |                                                                    |
  |  Copyright Schrodinger, Inc.                                       |
  |  All Rights Reserved.                                              |
  |                                                                    |
  |  The following have contributed to Jaguar (listed alphabetically): |
  |  Mike Beachy, Art Bochevarov, Dale Braden, Yixiang Cao,            |
  |  Alan Chien, Chris Cortis, Rich Friesner, Bill Goddard,            |
  |  Hod Greeley, Tom Hughes, Leif Jacobson, Jean-Marc Langlois,       |
  |  Daniel Levine, Daniel Mainz, Rob Murphy, Dean Philipp,            |
  |  Tom Pollard, Murco Ringnalda, Mark Watson, Haoyu Yu.              |
  |                                                                    |
  |  Use of this program should be acknowledged in publications as:    |
  |                                                                    |
  |  Jaguar, version 11.2, Schrodinger, Inc., New York, NY, 2021.      |
  |                                                                    |
  |  A. D. Bochevarov, E. Harder, T. F. Hughes, J. R. Greenwood,       |
  |  D. A. Braden, D. M. Philipp, D. Rinaldo, M. D. Halls,             |
  |  J. Zhang, R. A. Friesner, "Jaguar: A High-Performance Quantum     |
  |  Chemistry Software Program with Strengths in Life and Materials   |
  |  Sciences", Int. J. Quantum Chem., 2013, 113(18), 2110-2142.       |
  +--------------------------------------------------------------------+
  
  start of program pre
  
  Job name: jag_232005bond_opt_B3LYP-D3_6-31Gss
  Executables used: /mnt/Data_3/SCHRODINGER_2021-2/jaguar-v11.2/bin/Linux-x86_64
  Temporary files : /mnt/Data_3/SCHRODINGER_2021-2_TMP/vm/jag_232005bond_opt_B3LYP-D3_6-31Gss
  Maestro file (input):  jag_232005bond_opt_B3LYP-D3_6-31Gss.mae
  Maestro file (output): jag_232005bond_opt_B3LYP-D3_6-31Gss.01.mae
  
 Contents of input file: &gen section only
 ----------------Contents start----------------
&gen
isolv=2
basis=6-31G**
molchg=1
igeopt=1
dftname=B3LYP-D3
nogas=0
&
 -----------------Contents end-----------------
 
  basis set:             6-31g**                         
  net molecular charge:    1
  multiplicity:            1
  
  number of basis functions....          220
  
 Input geometry:
                                   angstroms
  atom               x                 y                 z
  O2            1.3934310469      1.8354444881     -0.7103339838 
  O3           -2.2364069090      0.5206630836      0.8106870295 
  O4           -1.2131915030     -3.8343048811     -0.0280468472 
  N5           -1.7084827416     -1.6534790334      0.4162809250 
  N6            0.3958946371     -2.2776834307     -0.4489613670 
  N7           -1.2138446880      3.1606153565      0.2305719351 
  C8           -0.0259567757      0.0471924920      0.0090721201 
  C9            0.4907128271      1.4423172975      0.0224738961 
  C10          -1.3858331577     -0.2981784840      0.4544085208 
  C11           0.7901506451     -0.9532061711     -0.4287910085 
  C12          -0.1216084575      2.4872602723      0.9588822091 
  C13          -0.8647342189     -2.6640980176     -0.0184503941 
  H14           1.7954097118     -0.7371622381     -0.7685051345 
  H15          -0.4818266889      2.0287546811      1.8809351320 
  H16           0.6465802592      3.2126172104      1.2319947266 
  H17          -2.6288688563     -1.9457302406      0.7142902571 
  H18           1.0015363879     -3.0266487781     -0.7681688788 
  H19          -1.5659206815      3.9401210090      0.7660778589 
  H20          -1.9603465812      2.4876079111      0.0894941499 
  H21          -0.8639820904      3.4814850817     -0.6627782124 
   
  principal moments of inertia:
        amu*angstrom^2:      251.51856      825.94081     1046.81875
                g*cm^2: 4.17656340E-38 1.37150681E-37 1.73828321E-37
   
  rotational constants:
               cm^(-1):      0.06702340      0.02041021      0.01610368
                   GHz:      2.00931101      0.61188284      0.48277604
   
  Molecular weight:     170.06 amu
   
  Stoichiometry: C6N3H8O3
[running at reduced cpu priority]
  Molecular Point Group: C1      
  Point Group used: C1
  
 
Number of optimization coordinates:    60
Number of independent coordinates:     60
Number of non-redundant coordinates:   54
Number of frozen coordinates:           0
Number of harmonic constraints:         0
 
Number of geometric degrees of freedom:    54
Maximum geometric degrees of freedom:      54
 " " " " " excluding dummy atoms:          54
 
  nuclear repulsion energy.......     711.423407172 hartrees
 
 Non-default options chosen:
   SCF calculation type: DFT(b3lyp-d3)               
   DFT=Becke_3_Parameter/HF+Slater+Becke88+VWN+LYP (B3LYP-D3)
   Geometry will be optimized in redundant internal coordinates
   Solvation energy will be computed using PBF
   Scaling standard convergence criteria by a factor of   3.00
   Solvent: water                                                           
   Internal dielectric constant:    1.000
   Continuum dielectric constant:  80.370
   Solvent probe molecule radius:   1.400
  
 Temporary integer options set:
     73=  2
  
  atom       vdw   vdw2    cov     mass  grid  daf  charge   basis
  O2        1.702  1.550  0.730   15.995    Y    Y      Y    6-31g**
  O3        1.702  1.550  0.730   15.995    Y    Y      Y    6-31g**
  O4        1.702  1.550  0.730   15.995    Y    Y      Y    6-31g**
  N5        1.831  1.500  0.750   14.003    Y    Y      Y    6-31g**
  N6        1.831  1.500  0.750   14.003    Y    Y      Y    6-31g**
  N7        1.831  1.550  0.750   14.003    Y    Y      Y    6-31g**
  C8        1.949  2.000  0.770   12.000    Y    Y      Y    6-31g**
  C9        1.949  2.000  0.770   12.000    Y    Y      Y    6-31g**
  C10       1.949  2.000  0.770   12.000    Y    Y      Y    6-31g**
  C11       1.949  2.000  0.770   12.000    Y    Y      Y    6-31g**
  C12       1.949  1.900  0.770   12.000    Y    Y      Y    6-31g**
  C13       1.949  2.000  0.770   12.000    Y    Y      Y    6-31g**
  H14       1.597  1.250  0.320    1.008    Y    Y      Y    6-31g**
  H15       1.597  1.150  0.320    1.008    Y    Y      Y    6-31g**
  H16       1.597  1.150  0.320    1.008    Y    Y      Y    6-31g**
  H17       1.597  1.150  0.320    1.008    Y    Y      Y    6-31g**
  H18       1.597  1.150  0.320    1.008    Y    Y      Y    6-31g**
  H19       1.597  1.150  0.320    1.008    Y    Y      Y    6-31g**
  H20       1.597  1.150  0.320    1.008    Y    Y      Y    6-31g**
  H21       1.597  1.150  0.320    1.008    Y    Y      Y    6-31g**
  
  end of program pre
   
 Time(pre)  user:        1.1  user+sys:        1.1  wallclock:        1.7
  
  start of program onee
  
  smallest eigenvalue of S:    1.003E-03
  number of canonical orbitals.....          220
  end of program onee
   
 Time(onee)  user:        0.1  user+sys:        0.1  wallclock:        0.1
  
  start of program hfig
  
  initial wavefunction generated automatically from atomic wavefunctions
 
  Irreducible     Total no   No of occupied orbitals 
  representation  orbitals   Shell_1  Shell_2    ...
  No Symm          220         44
  ------------------------
  Orbital occupation/shell    1.000
 
  end of program hfig
   
 Time(hfig)  user:        0.1  user+sys:        0.1  wallclock:        0.1
  
  start of program probe
  
  end of program probe
   
 Time(probe)  user:        0.1  user+sys:        0.1  wallclock:        0.1
  
  start of program grid
  
   grid     grid set  grid #  grid sym
  ------    --------  ------  --------
  coarse        0        0        1
  medium        2        1        1
  fine          0        0        1
  ultrafine     4        2        1
  charge       -1        3        1
  gradient      4        2        1
  density       0        0        1
  DFT-fine    -11        4        1
  DFT-med.    -10        5        1
  DFT-grad    -12        6        1
  DFT-der2      0        0        1
  DFT-cphf      0        0        1
  LMP2-enrg     4        2        1
  LMP2-grad     2        1        1
  DFT-cphf2     0        0        1
  PBF-dens      0        0        1
  plotting      0        0        1
  Rel-grad    -17        0        1
  
  number of gridpoints: 
     atom        O2       O3       O4       N5       N6       N7       C8
  grid # 1      123      119      123       99      100       79      102
  grid # 2      499      480      511      345      340      260      368
  grid # 3      279      184      360       55       52        6       43
  grid # 4     4304     4304     4304     4304     4304     4304     4304
  grid # 5     1192     1192     1192     1192     1192     1192     1192
  grid # 6     5226     5226     5226     5226     5226     5226     5226
   
  number of gridpoints: 
     atom        C9      C10      C11      C12      C13      H14      H15
  grid # 1       98       99       95       84       97      116      109
  grid # 2      355      353      338      284      352      443      435
  grid # 3       27       48       50        6       55      354      283
  grid # 4     4304     4304     4304     4304     4304     4304     4304
  grid # 5     1192     1192     1192     1192     1192     1192     1192
  grid # 6     5226     5226     5226     5226     5226     5226     5226
   
  number of gridpoints: 
     atom       H16      H17      H18      H19      H20      H21    total
  grid # 1      110      118      118      108      103      107     2107
  grid # 2      441      445      448      439      415      434     7985
  grid # 3      330      399      406      354      201      315     3807
  grid # 4     4304     4304     4304     4304     4304     4304    86080
  grid # 5     1192     1192     1192     1192     1192     1192    23840
  grid # 6     5226     5226     5226     5226     5226     5226   104520
   
  end of program grid
   
 Time(grid)  user:        0.8  user+sys:        0.8  wallclock:        0.9
  
  start of program rwr
  
  end of program rwr
   
 Time(rwr)  user:        0.6  user+sys:        0.6  wallclock:        0.6
  
  start of program scf
  
 number of electrons..........         88
 number of alpha electrons....         44
 number of beta electrons.....         44
 number of orbitals, total....        220
 number of doubly-occ'd orbs..         44
 number of open shell orbs....          0
 number of occupied orbitals..         44
 number of virtual orbitals...        176
 number of hamiltonians.......          1
 number of shells.............          1
 SCF type: DFT=Becke_3_Parameter/HF+Slater+Becke88+VWN+LYP (B3LYP-D3)
 Energy computed with NOPS off.
 Convergence Criterion:
    Energy (econv):       1.00E-05
    RMS density (dconv):  5.00E-06
  
       i  u  d  i  g                   
       t  p  i  c  r                                 RMS    maximum
       e  d  i  u  i                       energy  density   DIIS  
       r  t  s  t  d       total energy    change  change    error 
  
etot    1  N  N  5  M    -620.71027439188           1.4E-02  1.3E-01
etot    2  Y  Y  6  M    -618.89460310805 -1.8E+00  1.2E-02  2.9E-01
etot    3  Y  Y  6  M    -622.22933282074  3.3E+00  5.6E-03  8.3E-02
etot    4  N  Y  2  U    -623.10316874321  8.7E-01  2.8E-03  2.7E-02
etot    5  Y  Y  6  M    -623.17517099380  7.2E-02  1.2E-03  1.4E-02
etot    6  N  Y  2  U    -623.18778432058  1.3E-02  4.7E-04  8.1E-03
etot    7  Y  Y  6  M    -623.19228730575  4.5E-03  1.6E-04  2.8E-03
etot    8  Y  Y  6  M    -623.19308525352  8.0E-04  5.3E-05  8.6E-04
etot    9  N  Y  2  U    -623.19322175217  1.4E-04  2.3E-05  5.3E-04
etot   10  N  Y  2  U    -623.19323681178  1.5E-05  8.2E-06  9.4E-05
etot   11  N  Y  2  U    -623.19323739528  5.8E-07  3.4E-06  3.4E-05
etot   12  N  N  2  U    -623.19323748913  9.4E-08  0.0E+00  0.0E+00
 
  Computing the dispersion energy correction and its gradients...
  
  
 Energy components, in hartrees:
   (A)  Nuclear repulsion............     711.42340717214
   (E)  Total one-electron terms.....   -2245.84317673738
   (F)    Electron-nuclear...........   -2863.38774738473
   (H)    Kinetic....................     617.54457064735
   (I)  Total two-electron terms.....     911.22653207611
   (J)    Coulomb....................     993.02681347120
   (K)    Exchange+Correlation.......     -81.80028139509
   (L)  Electronic energy............   -1334.61664466126  (E+I)
   (M)  -V/T.........................       2.00914697839  (-(A+F+I)/H)
   (N0) D3 correction................      -0.01821613512
   (N)  Total energy.................    -623.21145362425  (A+L+N0)
   (O)  Gas phase energy.............    -623.21145362425
  
 SCFE: SCF energy: DFT(b3lyp-d3)      -623.21145362425 hartrees   iterations:  12
  
 
 HOMO energy:    -0.40293
 LUMO energy:    -0.22918
 
  Orbital energies (hartrees): 
   -19.31215   -19.29290   -19.26545   -14.65084   -14.56121   -14.53842
   -10.47863   -10.47113   -10.45796   -10.43278   -10.42660   -10.37369
    -1.22409    -1.21705    -1.19897    -1.19555    -1.12161    -1.07826
    -0.97030    -0.92695    -0.84392    -0.81434    -0.80180    -0.78867
    -0.77590    -0.71980    -0.70729    -0.67868    -0.67140    -0.63611
    -0.62582    -0.62414    -0.59978    -0.57816    -0.57276    -0.56149
    -0.55898    -0.54962    -0.50553    -0.44258    -0.43281    -0.42785
    -0.41225    -0.40293    -0.22918    -0.18513    -0.13533    -0.11765
    -0.07840    -0.06960    -0.05452    -0.04208    -0.03086    -0.02499
 
  end of program scf
   
 Time(scf)  user:       10.6  user+sys:       10.6  wallclock:       11.2
  
  start of program der1a
  
  end of program der1a
   
 Time(der1a)  user:        0.1  user+sys:        0.1  wallclock:        0.1
  
  start of program rwr
  
  end of program rwr
   
 Time(rwr)  user:        0.6  user+sys:        0.6  wallclock:        0.6
  
  start of program der1b
  
   
  forces (hartrees/bohr) : total     
   
 atom  label           x              y              z
 ---- --------   -------------  -------------  -------------
    1 O2         -5.767692E-03  -8.064487E-03   5.182982E-03
    2 O3          1.914614E-03   9.825181E-03  -1.535986E-03
    3 O4          6.566628E-03   1.552877E-02  -6.308950E-04
    4 N5          2.091839E-02   1.787895E-02  -3.957062E-03
    5 N6          9.430516E-03   4.099410E-02   1.736733E-03
    6 N7          3.070340E-03   1.152988E-03   6.345339E-03
    7 C8         -4.465405E-03   5.479767E-03   6.793992E-03
    8 C9          9.775992E-03  -3.983952E-03  -1.222638E-02
    9 C10        -7.277871E-03  -2.502492E-03   6.499543E-04
   10 C11         2.160886E-03  -2.794239E-02  -6.538574E-03
   11 C12         1.410011E-02  -1.506166E-02   1.839983E-02
   12 C13        -2.079650E-02  -4.274479E-02   2.584492E-03
   13 H14         1.602697E-03  -2.960420E-04  -1.520877E-03
   14 H15        -9.148923E-03   2.482663E-03  -2.465523E-03
   15 H16         3.499125E-04   1.382072E-03  -6.089849E-03
   16 H17        -3.380309E-03  -8.018341E-05   7.361152E-04
   17 H18        -1.692880E-04   1.502082E-03   7.315774E-04
   18 H19        -7.543957E-03   1.202205E-02   3.363208E-03
   19 H20        -1.377699E-02  -1.435377E-02   2.085061E-04
   20 H21         1.705380E-03   7.323912E-03  -1.128374E-02
 -------------   -------------  -------------  -------------
     total       -7.314727E-04   5.427544E-04   4.838405E-04
   
  end of program der1b
   
 Time(der1b)  user:        3.4  user+sys:        3.4  wallclock:        3.4
  
  start of program geopt
  
 ----------------------------------------------------------------------------
  Geometry optimization step   1
  Total energy:      -623.21145362425 hartrees
 ----------------------------------------------------------------------------
  
  gradient maximum:        3.5328E-02 .  (  1.3500E-03 )
  gradient rms:            1.1808E-02 .  (  9.0000E-04 )
  displacement maximum:    1.2337E-01 .  (  5.4000E-03 )
  displacement rms:        2.9923E-02 .  (  3.6000E-03 )
  
  predicted energy change:  -8.9164E-03
  step size:     0.23178
  trust radius:  0.30000
  
  molecular structure not yet converged...
  
  center of mass moved by:
     x:     4.0372E-02     y:     4.0720E-02     z:    -1.1070E-02
  
  new geometry: 
                                   angstroms
  atom               x                 y                 z
  O2            1.4870344005      1.7579156981     -0.6718677718 
  O3           -2.1723412485      0.6504693813      0.7235697906 
  O4           -1.2970384219     -3.7884575358     -0.0055159939 
  N5           -1.7161428950     -1.5641293840      0.3873857130 
  N6            0.3640317342     -2.2647942730     -0.4248763560 
  N7           -1.3108556703      3.0229285665      0.2827777868 
  C8            0.0138327904      0.0385038136     -0.0004020747 
  C9            0.5509892045      1.3980990471      0.0229881729 
  C10          -1.3605265415     -0.2272701529      0.4119432708 
  C11           0.8068480887     -0.9929648034     -0.4265056437 
  C12          -0.1063774534      2.4316770619      0.9663552743 
  C13          -0.9220969832     -2.6391239584     -0.0079451390 
  H14           1.8238422862     -0.8244223583     -0.7671037293 
  H15          -0.4607128632      1.9979302648      1.9023151142 
  H16           0.6190083714      3.2229623700      1.1596917004 
  H17          -2.6594170903     -1.8073074689      0.6702078063 
  H18           0.9546575304     -3.0317683985     -0.7236827943 
  H19          -1.7096693047      3.8065267851      0.8087827354 
  H20          -2.0281925493      2.2801028199      0.2157399818 
  H21          -1.0614409264      3.3557522135     -0.6555621375 
   
  nuclear repulsion energy.......     717.094040715 hartrees
  -------------------------------------------------
 /  end of geometry optimization iteration   1   /
 -------------------------------------------------
   
  end of program geopt
   
 Time(geopt)  user:        0.1  user+sys:        0.1  wallclock:        0.1
  
  start of program onee
  
  smallest eigenvalue of S:    9.957E-04
  number of canonical orbitals.....          220
  end of program onee
   
 Time(onee)  user:        0.1  user+sys:        0.1  wallclock:        0.1
  
  start of program probe
  
  end of program probe
   
 Time(probe)  user:        0.1  user+sys:        0.1  wallclock:        0.0
  
  start of program grid
  
   grid     grid set  grid #  grid sym
  ------    --------  ------  --------
  coarse        0        0        1
  medium        2        1        1
  fine          0        0        1
  ultrafine     4        2        1
  charge       -1        3        1
  gradient      4        2        1
  density       0        0        1
  DFT-fine    -11        4        1
  DFT-med.    -10        5        1
  DFT-grad    -12        6        1
  DFT-der2      0        0        1
  DFT-cphf      0        0        1
  LMP2-enrg     4        2        1
  LMP2-grad     2        1        1
  DFT-cphf2     0        0        1
  PBF-dens      0        0        1
  plotting      0        0        1
  Rel-grad    -17        0        1
  
  number of gridpoints: 
     atom        O2       O3       O4       N5       N6       N7       C8
  grid # 1      123      118      123      101      101       80      100
  grid # 2      502      463      507      344      342      267      365
  grid # 3      297      156      366       54       52        6       43
  grid # 4     4304     4304     4304     4304     4304     4304     4304
  grid # 5     1192     1192     1192     1192     1192     1192     1192
  grid # 6     5226     5226     5226     5226     5226     5226     5226
   
  number of gridpoints: 
     atom        C9      C10      C11      C12      C13      H14      H15
  grid # 1       97       96       95       82       97      116      109
  grid # 2      352      351      336      286      349      443      436
  grid # 3       28       47       51        7       55      355      297
  grid # 4     4304     4304     4304     4304     4304     4304     4304
  grid # 5     1192     1192     1192     1192     1192     1192     1192
  grid # 6     5226     5226     5226     5226     5226     5226     5226
   
  number of gridpoints: 
     atom       H16      H17      H18      H19      H20      H21    total
  grid # 1      110      118      118      109      101      108     2102
  grid # 2      441      445      446      438      401      436     7950
  grid # 3      340      398      403      358      170      331     3814
  grid # 4     4304     4304     4304     4304     4304     4304    86080
  grid # 5     1192     1192     1192     1192     1192     1192    23840
  grid # 6     5226     5226     5226     5226     5226     5226   104520
   
  end of program grid
   
 Time(grid)  user:        0.8  user+sys:        0.8  wallclock:        0.8
  
  start of program rwr
  
  end of program rwr
   
 Time(rwr)  user:        0.6  user+sys:        0.6  wallclock:        0.6
  
  start of program scf
  
 Energy computed with NOPS off.
 Convergence Criterion:
    Energy (econv):       1.00E-05
    RMS density (dconv):  5.00E-06
  
       i  u  d  i  g                   
       t  p  i  c  r                                 RMS    maximum
       e  d  i  u  i                       energy  density   DIIS  
       r  t  s  t  d       total energy    change  change    error 
  
etot    1  N  N  2  U    -623.18301846235           9.9E-04  8.7E-03
etot    2  Y  Y  6  M    -623.19947252390  1.6E-02  4.9E-04  5.8E-03
etot    3  N  Y  2  U    -623.19737994353 -2.1E-03  3.2E-04  8.2E-03
etot    4  Y  Y  6  M    -623.20124134560  3.9E-03  5.6E-05  1.2E-03
etot    5  Y  Y  6  M    -623.20136129168  1.2E-04  1.8E-05  3.0E-04
etot    6  N  Y  2  U    -623.20135829252 -3.0E-06  8.2E-06  1.6E-04
etot    7  N  Y  2  U    -623.20135984555  1.6E-06  4.8E-06  2.9E-05
etot    8  N  N  2  U    -623.20135997848  1.3E-07  0.0E+00  0.0E+00
 
  Computing the dispersion energy correction and its gradients...
  
  
 Energy components, in hartrees:
   (A)  Nuclear repulsion............     717.09404071474
   (E)  Total one-electron terms.....   -2257.03418363564
   (F)    Electron-nuclear...........   -2874.66958020179
   (H)    Kinetic....................     617.63539656615
   (I)  Total two-electron terms.....     916.73878294242
   (J)    Coulomb....................     998.55966314209
   (K)    Exchange+Correlation.......     -81.82088019967
   (L)  Electronic energy............   -1340.29540069322  (E+I)
   (M)  -V/T.........................       2.00901172997  (-(A+F+I)/H)
   (N0) D3 correction................      -0.01820823103
   (N)  Total energy.................    -623.21956820950  (A+L+N0)
   (O)  Gas phase energy.............    -623.21956820950
  
 SCFE: SCF energy: DFT(b3lyp-d3)      -623.21956820950 hartrees   iterations:   8
  
 
 HOMO energy:    -0.40589
 LUMO energy:    -0.22668
 
  Orbital energies (hartrees): 
   -19.30658   -19.30160   -19.28022   -14.63014   -14.56669   -14.54716
   -10.49004   -10.47833   -10.45125   -10.43500   -10.42129   -10.36914
    -1.23377    -1.21424    -1.20712    -1.17408    -1.13844    -1.08932
    -0.97288    -0.91671    -0.85223    -0.82733    -0.79537    -0.76737
    -0.76022    -0.72315    -0.70082    -0.67734    -0.66582    -0.63965
    -0.63355    -0.62511    -0.59524    -0.58442    -0.57739    -0.57146
    -0.56278    -0.55149    -0.51453    -0.45358    -0.44483    -0.42915
    -0.42217    -0.40589    -0.22668    -0.18809    -0.13675    -0.11248
    -0.07442    -0.07152    -0.04186    -0.03662    -0.03095    -0.02867
 
  end of program scf
   
 Time(scf)  user:        8.3  user+sys:        8.3  wallclock:        8.5
  
  start of program der1a
  
  end of program der1a
   
 Time(der1a)  user:        0.1  user+sys:        0.1  wallclock:        0.1
  
  start of program rwr
  
  end of program rwr
   
 Time(rwr)  user:        0.6  user+sys:        0.6  wallclock:        0.6
  
  start of program der1b
  
   
  forces (hartrees/bohr) : total     
   
 atom  label           x              y              z
 ---- --------   -------------  -------------  -------------
    1 O2          7.516848E-04   1.649640E-04   3.437170E-03
    2 O3         -1.093718E-02  -6.155371E-03   2.886061E-03
    3 O4          2.383862E-03   6.266628E-03  -5.841600E-05
    4 N5          5.457965E-04   5.790489E-03   1.692202E-03
    5 N6          2.681373E-03   4.467932E-03  -5.436994E-04
    6 N7          5.339991E-03   1.642089E-02  -3.947274E-03
    7 C8         -3.769024E-03   1.515739E-03   4.190981E-03
    8 C9          2.071658E-03   4.293254E-03  -3.740876E-03
    9 C10         7.264484E-03  -7.043858E-03  -5.010749E-03
   10 C11         8.309391E-04  -4.721848E-03  -2.269549E-03
   11 C12         1.117416E-03   6.085416E-04   2.387134E-03
   12 C13        -7.103202E-03  -1.305551E-02   8.064191E-04
   13 H14        -3.164315E-04   1.291856E-03   4.205903E-05
   14 H15         4.347757E-04  -1.910565E-04  -7.197719E-04
   15 H16        -6.438050E-04   4.749760E-04  -1.911340E-03
   16 H17        -1.291050E-03  -1.574287E-04  -1.187058E-04
   17 H18         2.906212E-04  -9.743331E-04  -2.839420E-05
   18 H19         1.777193E-03   1.114679E-03  -2.437195E-04
   19 H20        -7.915290E-04  -1.164105E-02   2.185917E-03
   20 H21        -1.160387E-03   1.857690E-03   1.168277E-03
 -------------   -------------  -------------  -------------
     total       -5.228125E-04   3.271884E-04   2.037235E-04
   
  end of program der1b
   
 Time(der1b)  user:        3.4  user+sys:        3.4  wallclock:        3.4
  
  start of program geopt
  
 ----------------------------------------------------------------------------
  Geometry optimization step   2
  Total energy:      -623.21956820950 hartrees
 ----------------------------------------------------------------------------
  
  energy change:          -8.1146E-03 .  (  1.5000E-04 )
  gradient maximum:        4.4588E-02 .  (  1.3500E-03 )
  gradient rms:            9.2271E-03 .  (  9.0000E-04 )
  displacement maximum:    6.6328E-02 .  (  5.4000E-03 )
  displacement rms:        2.0095E-02 .  (  3.6000E-03 )
  
  predicted energy change:  -2.9142E-03
  step size:     0.15565
  trust radius:  0.30000
  
  molecular structure not yet converged...
  
  center of mass moved by:
     x:    -1.4911E-02     y:    -2.7206E-02     z:    -9.5149E-03
  
  new geometry: 
                                   angstroms
  atom               x                 y                 z
  O2            1.5280505943      1.7234812405     -0.6350924736 
  O3           -2.2615428546      0.5988071406      0.6651118514 
  O4           -1.2668564339     -3.8097860544     -0.0083876498 
  N5           -1.7250774741     -1.5820428307      0.3556349687 
  N6            0.3747675381     -2.2493319896     -0.4050457043 
  N7           -1.2971848468      3.0667962386      0.3182225725 
  C8           -0.0121574607      0.0535737358      0.0097442351 
  C9            0.5573639317      1.4116364197      0.0308982794 
  C10          -1.3973538088     -0.2421189543      0.3800644521 
  C11           0.7972881229     -0.9776821363     -0.4044124808 
  C12          -0.0548368407      2.4940693271      0.9576666918 
  C13          -0.9158488069     -2.6594537409     -0.0110935683 
  H14           1.8167708563     -0.7933693927     -0.7306720213 
  H15          -0.3724213144      2.1096617021      1.9267313161 
  H16           0.6767057767      3.2957066275      1.0604067743 
  H17          -2.6752829694     -1.8334776719      0.6140059126 
  H18           0.9861694657     -3.0061595020     -0.6895551038 
  H19          -1.6867059837      3.8583490756      0.8459203528 
  H20          -1.9773715841      2.2679658563      0.3334516707 
  H21          -1.1212331338      3.3839413038     -0.6446032985 
   
  nuclear repulsion energy.......     713.460135117 hartrees
  -------------------------------------------------
 /  end of geometry optimization iteration   2   /
 -------------------------------------------------
   
  end of program geopt
   
 Time(geopt)  user:        0.1  user+sys:        0.1  wallclock:        0.1
  
  start of program onee
  
  smallest eigenvalue of S:    1.013E-03
  number of canonical orbitals.....          220
  end of program onee
   
 Time(onee)  user:        0.1  user+sys:        0.1  wallclock:        0.1
  
  start of program probe
  
  end of program probe
   
 Time(probe)  user:        0.1  user+sys:        0.1  wallclock:        0.0
  
  start of program grid
  
   grid     grid set  grid #  grid sym
  ------    --------  ------  --------
  coarse        0        0        1
  medium        2        1        1
  fine          0        0        1
  ultrafine     4        2        1
  charge       -1        3        1
  gradient      4        2        1
  density       0        0        1
  DFT-fine    -11        4        1
  DFT-med.    -10        5        1
  DFT-grad    -12        6        1
  DFT-der2      0        0        1
  DFT-cphf      0        0        1
  LMP2-enrg     4        2        1
  LMP2-grad     2        1        1
  DFT-cphf2     0        0        1
  PBF-dens      0        0        1
  plotting      0        0        1
  Rel-grad    -17        0        1
  
  number of gridpoints: 
     atom        O2       O3       O4       N5       N6       N7       C8
  grid # 1      123      118      123      101      101       81      101
  grid # 2      502      470      507      346      341      270      366
  grid # 3      295      183      367       55       51        6       43
  grid # 4     4304     4304     4304     4304     4304     4304     4304
  grid # 5     1192     1192     1192     1192     1192     1192     1192
  grid # 6     5226     5226     5226     5226     5226     5226     5226
   
  number of gridpoints: 
     atom        C9      C10      C11      C12      C13      H14      H15
  grid # 1       98       98       97       82       97      116      110
  grid # 2      353      353      338      283      349      441      436
  grid # 3       27       49       52        7       55      350      312
  grid # 4     4304     4304     4304     4304     4304     4304     4304
  grid # 5     1192     1192     1192     1192     1192     1192     1192
  grid # 6     5226     5226     5226     5226     5226     5226     5226
   
  number of gridpoints: 
     atom       H16      H17      H18      H19      H20      H21    total
  grid # 1      109      118      118      109      101      108     2109
  grid # 2      442      445      446      441      402      438     7969
  grid # 3      335      397      403      359      151      344     3841
  grid # 4     4304     4304     4304     4304     4304     4304    86080
  grid # 5     1192     1192     1192     1192     1192     1192    23840
  grid # 6     5226     5226     5226     5226     5226     5226   104520
   
  end of program grid
   
 Time(grid)  user:        0.8  user+sys:        0.8  wallclock:        0.8
  
  start of program rwr
  
  end of program rwr
   
 Time(rwr)  user:        0.6  user+sys:        0.6  wallclock:        0.6
  
  start of program scf
  
 Energy computed with NOPS off.
 Convergence Criterion:
    Energy (econv):       1.00E-05
    RMS density (dconv):  5.00E-06
  
       i  u  d  i  g                   
       t  p  i  c  r                                 RMS    maximum
       e  d  i  u  i                       energy  density   DIIS  
       r  t  s  t  d       total energy    change  change    error 
  
etot    1  N  N  2  U    -623.19476189428           6.4E-04  7.1E-03
etot    2  Y  Y  6  M    -623.20364795672  8.9E-03  1.6E-04  1.0E-03
etot    3  N  Y  2  U    -623.20341045224 -2.4E-04  1.1E-04  2.3E-03
etot    4  Y  Y  6  M    -623.20385555841  4.5E-04  1.9E-05  3.6E-04
etot    5  N  Y  2  U    -623.20387791563  2.2E-05  7.3E-06  9.4E-05
etot    6  N  Y  2  U    -623.20387933263  1.4E-06  3.4E-06  5.1E-05
etot    7  N  N  2  U    -623.20387945514  1.2E-07  0.0E+00  0.0E+00
 
  Computing the dispersion energy correction and its gradients...
  
  
 Energy components, in hartrees:
   (A)  Nuclear repulsion............     713.46013511682
   (E)  Total one-electron terms.....   -2249.79760378126
   (F)    Electron-nuclear...........   -2867.33950987608
   (H)    Kinetic....................     617.54190609482
   (I)  Total two-electron terms.....     913.13358920930
   (J)    Coulomb....................     994.93001447220
   (K)    Exchange+Correlation.......     -81.79642526291
   (L)  Electronic energy............   -1336.66401457196  (E+I)
   (M)  -V/T.........................       2.00916856541  (-(A+F+I)/H)
   (N0) D3 correction................      -0.01800552025
   (N)  Total energy.................    -623.22188497538  (A+L+N0)
   (O)  Gas phase energy.............    -623.22188497538
  
 SCFE: SCF energy: DFT(b3lyp-d3)      -623.22188497538 hartrees   iterations:   7
  
 
 HOMO energy:    -0.40526
 LUMO energy:    -0.22532
 
  Orbital energies (hartrees): 
   -19.30723   -19.30234   -19.28319   -14.63026   -14.56566   -14.54555
   -10.49063   -10.47786   -10.45359   -10.43388   -10.42418   -10.37065
    -1.23384    -1.21406    -1.20820    -1.17206    -1.14021    -1.08744
    -0.97008    -0.91590    -0.85105    -0.82660    -0.79332    -0.76534
    -0.75883    -0.72149    -0.70032    -0.67469    -0.66379    -0.63849
    -0.63270    -0.62553    -0.59414    -0.58412    -0.57955    -0.57028
    -0.56468    -0.55197    -0.51579    -0.45483    -0.44377    -0.43178
    -0.42323    -0.40526    -0.22532    -0.18750    -0.13860    -0.11240
    -0.07556    -0.07183    -0.04322    -0.03396    -0.03160    -0.02556
 
  end of program scf
   
 Time(scf)  user:        7.9  user+sys:        7.9  wallclock:        8.2
  
  start of program der1a
  
  end of program der1a
   
 Time(der1a)  user:        0.1  user+sys:        0.1  wallclock:        0.1
  
  start of program rwr
  
  end of program rwr
   
 Time(rwr)  user:        0.6  user+sys:        0.6  wallclock:        0.6
  
  start of program der1b
  
   
  forces (hartrees/bohr) : total     
   
 atom  label           x              y              z
 ---- --------   -------------  -------------  -------------
    1 O2          2.569137E-03   5.571352E-04   8.609508E-04
    2 O3         -7.004729E-04   4.612133E-03   1.672330E-03
    3 O4          5.846229E-05  -4.265039E-04   5.824404E-05
    4 N5         -2.229945E-03  -2.980960E-03   1.351350E-03
    5 N6          5.491078E-04  -5.252353E-03  -1.088915E-03
    6 N7         -8.852762E-04   3.742218E-03  -8.032814E-04
    7 C8         -3.460181E-03   2.006885E-03   2.402783E-03
    8 C9         -1.239294E-03   1.038085E-03   2.962770E-04
    9 C10         6.542290E-03  -5.286254E-04  -2.499744E-03
   10 C11        -3.649346E-04   2.691468E-03  -1.531973E-04
   11 C12        -6.020048E-04   3.463982E-03  -3.447949E-03
   12 C13        -9.705236E-04   2.453627E-03   1.056175E-04
   13 H14        -5.401016E-04   8.570751E-04   3.230961E-04
   14 H15         1.613162E-03  -1.466925E-03   9.427794E-04
   15 H16         8.962296E-04  -1.479418E-03   1.005248E-03
   16 H17        -1.311802E-05   9.034076E-04  -3.843535E-04
   17 H18         3.706676E-04  -5.216732E-04  -1.107604E-04
   18 H19         2.261524E-03  -2.410605E-03  -7.036690E-04
   19 H20        -3.369895E-03  -5.324224E-03  -2.544265E-03
   20 H21        -9.984836E-04  -1.559796E-03   3.105440E-03
 -------------   -------------  -------------  -------------
     total       -5.136494E-04   3.749305E-04   3.879809E-04
   
  end of program der1b
   
 Time(der1b)  user:        3.4  user+sys:        3.4  wallclock:        3.3
  
  start of program geopt
  
 ----------------------------------------------------------------------------
  Geometry optimization step   3
  Total energy:      -623.22188497538 hartrees
 ----------------------------------------------------------------------------
  
  energy change:          -2.3168E-03 .  (  1.5000E-04 )
  gradient maximum:        1.9770E-02 .  (  1.3500E-03 )
  gradient rms:            4.6049E-03 .  (  9.0000E-04 )
  displacement maximum:    1.3334E-01 .  (  5.4000E-03 )
  displacement rms:        3.1824E-02 .  (  3.6000E-03 )
  
  predicted energy change:  -1.2409E-03
  step size:     0.24651
  trust radius:  0.30000
  
  molecular structure not yet converged...
  
  center of mass moved by:
     x:     1.9843E-02     y:     6.5234E-03     z:     4.8244E-02
  
  new geometry: 
                                   angstroms
  atom               x                 y                 z
  O2            1.6279527778      1.6875641773     -0.5149599209 
  O3           -2.2284441241      0.5949875732      0.7976012161 
  O4           -1.3218422064     -3.7886261155     -0.0948766867 
  N5           -1.7289375069     -1.5665752321      0.3684316528 
  N6            0.3354732660     -2.2355062409     -0.4767630703 
  N7           -1.3217765503      3.0130400832      0.2335046235 
  C8           -0.0049073416      0.0622340804      0.0332412101 
  C9            0.5944457356      1.4113756402      0.0663348352 
  C10          -1.3776100220     -0.2346788363      0.4351576880 
  C11           0.7746724797     -0.9703778145     -0.4410886215 
  C12          -0.0647239083      2.5192201708      0.9221406025 
  C13          -0.9544437088     -2.6471699213     -0.0628004193 
  H14           1.7853619103     -0.7819406251     -0.7907984230 
  H15          -0.3893632402      2.1578412286      1.8985125187 
  H16           0.6434040843      3.3428162540      1.0046880049 
  H17          -2.6786301587     -1.8052519840      0.6430325386 
  H18           0.9296117010     -2.9895439654     -0.8049435955 
  H19          -1.7996011624      3.7477986133      0.7685235257 
  H20          -1.9237445690      2.1406394640      0.1789340348 
  H21          -1.1336689959      3.3836795918     -0.7054798988 
   
  nuclear repulsion energy.......     713.941651276 hartrees
  -------------------------------------------------
 /  end of geometry optimization iteration   3   /
 -------------------------------------------------
   
  end of program geopt
   
 Time(geopt)  user:        0.1  user+sys:        0.1  wallclock:        0.1
  
  start of program onee
  
  smallest eigenvalue of S:    9.956E-04
  number of canonical orbitals.....          220
  end of program onee
   
 Time(onee)  user:        0.1  user+sys:        0.1  wallclock:        0.1
  
  start of program probe
  
  end of program probe
   
 Time(probe)  user:        0.1  user+sys:        0.1  wallclock:        0.0
  
  start of program grid
  
   grid     grid set  grid #  grid sym
  ------    --------  ------  --------
  coarse        0        0        1
  medium        2        1        1
  fine          0        0        1
  ultrafine     4        2        1
  charge       -1        3        1
  gradient      4        2        1
  density       0        0        1
  DFT-fine    -11        4        1
  DFT-med.    -10        5        1
  DFT-grad    -12        6        1
  DFT-der2      0        0        1
  DFT-cphf      0        0        1
  LMP2-enrg     4        2        1
  LMP2-grad     2        1        1
  DFT-cphf2     0        0        1
  PBF-dens      0        0        1
  plotting      0        0        1
  Rel-grad    -17        0        1
  
  number of gridpoints: 
     atom        O2       O3       O4       N5       N6       N7       C8
  grid # 1      123      118      123      101      101       81      101
  grid # 2      500      469      507      345      341      266      361
  grid # 3      292      175      369       55       52        6       44
  grid # 4     4304     4304     4304     4304     4304     4304     4304
  grid # 5     1192     1192     1192     1192     1192     1192     1192
  grid # 6     5226     5226     5226     5226     5226     5226     5226
   
  number of gridpoints: 
     atom        C9      C10      C11      C12      C13      H14      H15
  grid # 1       97       98       97       82       97      115      110
  grid # 2      353      352      340      282      350      441      436
  grid # 3       25       50       52        7       55      345      306
  grid # 4     4304     4304     4304     4304     4304     4304     4304
  grid # 5     1192     1192     1192     1192     1192     1192     1192
  grid # 6     5226     5226     5226     5226     5226     5226     5226
   
  number of gridpoints: 
     atom       H16      H17      H18      H19      H20      H21    total
  grid # 1      109      118      118      109      103      109     2110
  grid # 2      444      445      446      438      399      438     7953
  grid # 3      334      397      403      355      154      344     3820
  grid # 4     4304     4304     4304     4304     4304     4304    86080
  grid # 5     1192     1192     1192     1192     1192     1192    23840
  grid # 6     5226     5226     5226     5226     5226     5226   104520
   
  end of program grid
   
 Time(grid)  user:        0.8  user+sys:        0.8  wallclock:        0.8
  
  start of program rwr
  
  end of program rwr
   
 Time(rwr)  user:        0.5  user+sys:        0.5  wallclock:        0.5
  
  start of program scf
  
 Energy computed with NOPS off.
 Convergence Criterion:
    Energy (econv):       1.00E-05
    RMS density (dconv):  5.00E-06
  
       i  u  d  i  g                   
       t  p  i  c  r                                 RMS    maximum
       e  d  i  u  i                       energy  density   DIIS  
       r  t  s  t  d       total energy    change  change    error 
  
etot    1  N  N  2  U    -623.18523658848           8.5E-04  9.8E-03
etot    2  Y  Y  6  M    -623.20372700534  1.8E-02  1.8E-04  1.4E-03
etot    3  N  Y  2  U    -623.20370713804 -2.0E-05  1.1E-04  2.2E-03
etot    4  Y  Y  6  M    -623.20407328829  3.7E-04  3.2E-05  6.2E-04
etot    5  N  Y  2  U    -623.20409368957  2.0E-05  1.3E-05  1.5E-04
etot    6  N  Y  2  U    -623.20409647668  2.8E-06  5.8E-06  6.6E-05
etot    7  N  Y  2  U    -623.20409713769  6.6E-07  1.7E-06  3.7E-05
etot    8  N  N  2  U    -623.20409719080  5.3E-08  0.0E+00  0.0E+00
 
  Computing the dispersion energy correction and its gradients...
  
  
 Energy components, in hartrees:
   (A)  Nuclear repulsion............     713.94165127620
   (E)  Total one-electron terms.....   -2250.69694777885
   (F)    Electron-nuclear...........   -2868.22150329079
   (H)    Kinetic....................     617.52455551194
   (I)  Total two-electron terms.....     913.55119931184
   (J)    Coulomb....................     995.34096377521
   (K)    Exchange+Correlation.......     -81.78976446337
   (L)  Electronic energy............   -1337.14574846701  (E+I)
   (M)  -V/T.........................       2.00919727261  (-(A+F+I)/H)
   (N0) D3 correction................      -0.01806509709
   (N)  Total energy.................    -623.22216228789  (A+L+N0)
   (O)  Gas phase energy.............    -623.22216228789
  
 SCFE: SCF energy: DFT(b3lyp-d3)      -623.22216228789 hartrees   iterations:   8
  
 
 HOMO energy:    -0.40821
 LUMO energy:    -0.22714
 
  Orbital energies (hartrees): 
   -19.30647   -19.30332   -19.28670   -14.62777   -14.56831   -14.54792
   -10.49344   -10.47981   -10.45326   -10.43608   -10.42237   -10.37289
    -1.23650    -1.21519    -1.20871    -1.16817    -1.14259    -1.08884
    -0.97155    -0.91523    -0.85200    -0.82854    -0.79357    -0.76151
    -0.75710    -0.72228    -0.70041    -0.67497    -0.66330    -0.63943
    -0.63373    -0.62511    -0.59333    -0.58539    -0.58126    -0.57154
    -0.56395    -0.55356    -0.51748    -0.45687    -0.44618    -0.43415
    -0.42319    -0.40821    -0.22714    -0.18880    -0.13848    -0.11083
    -0.07494    -0.07182    -0.04430    -0.03425    -0.03086    -0.02175
 
  end of program scf
   
 Time(scf)  user:        9.2  user+sys:        9.2  wallclock:        9.5
  
  start of program der1a
  
  end of program der1a
   
 Time(der1a)  user:        0.1  user+sys:        0.1  wallclock:        0.2
  
  start of program rwr
  
  end of program rwr
   
 Time(rwr)  user:        0.6  user+sys:        0.6  wallclock:        0.6
  
  start of program der1b
  
   
  forces (hartrees/bohr) : total     
   
 atom  label           x              y              z
 ---- --------   -------------  -------------  -------------
    1 O2          1.828756E-03  -7.447546E-04  -7.770039E-04
    2 O3          1.662128E-03   4.922505E-03  -3.202274E-03
    3 O4         -1.162354E-03  -3.644740E-03  -1.991529E-04
    4 N5         -2.120366E-03  -5.165342E-03   7.365358E-04
    5 N6         -5.551640E-04  -5.465157E-03  -8.320891E-04
    6 N7          1.781226E-03  -2.576216E-03  -4.397455E-03
    7 C8         -1.785924E-03   1.302759E-03  -1.565123E-03
    8 C9         -8.542579E-04   2.767344E-04   3.847443E-03
    9 C10         3.015018E-03  -1.980262E-03  -3.466734E-04
   10 C11        -8.980904E-04   2.563270E-03   8.283033E-04
   11 C12        -3.158675E-03   3.024689E-03  -4.375740E-03
   12 C13         2.631950E-03   8.849262E-03   5.079788E-04
   13 H14        -7.056886E-05   3.284184E-04   3.572792E-04
   14 H15         1.454225E-03  -5.713407E-04   8.118416E-04
   15 H16         5.416076E-05  -2.612816E-04   1.061073E-03
   16 H17         6.263912E-04   8.680539E-04  -7.767009E-05
   17 H18         1.954264E-04   6.806791E-05  -1.465655E-04
   18 H19         2.159203E-04  -3.662564E-03  -3.970705E-05
   19 H20        -4.388244E-03   3.065072E-03   6.193340E-03
   20 H21         1.102376E-03  -8.145349E-04   2.100158E-03
 -------------   -------------  -------------  -------------
     total       -4.260663E-04   3.826391E-04   4.844971E-04
   
  end of program der1b
   
 Time(der1b)  user:        3.5  user+sys:        3.5  wallclock:        3.5
  
  start of program geopt
  
 ----------------------------------------------------------------------------
  Geometry optimization step   4
  Total energy:      -623.22216228789 hartrees
 ----------------------------------------------------------------------------
  
  energy change:          -2.7731E-04 .  (  1.5000E-04 )
  gradient maximum:        1.5430E-02 .  (  1.3500E-03 )
  gradient rms:            4.8225E-03 .  (  9.0000E-04 )
  displacement maximum:    9.4242E-02 .  (  5.4000E-03 )
  displacement rms:        2.2664E-02 .  (  3.6000E-03 )
  
  predicted energy change:  -1.3023E-03
  step size:     0.17555
  trust radius:  0.30000
  
  molecular structure not yet converged...
  
  center of mass moved by:
     x:     1.0178E-02     y:    -6.2460E-05     z:     8.2906E-04
  
  new geometry: 
                                   angstroms
  atom               x                 y                 z
  O2            1.6827460544      1.6556970750     -0.4387416585 
  O3           -2.2254648862      0.6078186960      0.7820800500 
  O4           -1.3408575097     -3.7788405275     -0.1271808650 
  N5           -1.7369903997     -1.5564490268      0.3473036334 
  N6            0.3297986327     -2.2328749572     -0.4856422552 
  N7           -1.3543722310      2.9809509080      0.2437058085 
  C8           -0.0029778100      0.0668932139      0.0406389310 
  C9            0.6128487599      1.4087857721      0.0880967298 
  C10          -1.3756272994     -0.2269082303      0.4230389761 
  C11           0.7732574067     -0.9697455189     -0.4346802001 
  C12          -0.0603679921      2.5371084402      0.9055354477 
  C13          -0.9679020385     -2.6401242360     -0.0841364414 
  H14           1.7877055096     -0.7799187293     -0.7721600459 
  H15          -0.3419941676      2.2065116361      1.9068632479 
  H16           0.6370957979      3.3726290913      0.9355201077 
  H17          -2.6924194725     -1.7836693426      0.6110353855 
  H18           0.9237861645     -2.9872666371     -0.8147242733 
  H19          -1.7726196534      3.7815795099      0.7274843980 
  H20          -1.9966908329      2.1356200456      0.3335257330 
  H21          -1.2234422742      3.2443900222     -0.7379482976 
   
  nuclear repulsion energy.......     714.238384247 hartrees
  -------------------------------------------------
 /  end of geometry optimization iteration   4   /
 -------------------------------------------------
   
  end of program geopt
   
 Time(geopt)  user:        0.1  user+sys:        0.1  wallclock:        0.1
  
  start of program onee
  
  smallest eigenvalue of S:    9.960E-04
  number of canonical orbitals.....          220
  end of program onee
   
 Time(onee)  user:        0.1  user+sys:        0.1  wallclock:        0.1
  
  start of program probe
  
  end of program probe
   
 Time(probe)  user:        0.1  user+sys:        0.1  wallclock:        0.0
  
  start of program grid
  
   grid     grid set  grid #  grid sym
  ------    --------  ------  --------
  coarse        0        0        1
  medium        2        1        1
  fine          0        0        1
  ultrafine     4        2        1
  charge       -1        3        1
  gradient      4        2        1
  density       0        0        1
  DFT-fine    -11        4        1
  DFT-med.    -10        5        1
  DFT-grad    -12        6        1
  DFT-der2      0        0        1
  DFT-cphf      0        0        1
  LMP2-enrg     4        2        1
  LMP2-grad     2        1        1
  DFT-cphf2     0        0        1
  PBF-dens      0        0        1
  plotting      0        0        1
  Rel-grad    -17        0        1
  
  number of gridpoints: 
     atom        O2       O3       O4       N5       N6       N7       C8
  grid # 1      123      118      123      101      101       82      101
  grid # 2      499      462      507      345      341      269      358
  grid # 3      288      170      369       54       52        6       44
  grid # 4     4304     4304     4304     4304     4304     4304     4304
  grid # 5     1192     1192     1192     1192     1192     1192     1192
  grid # 6     5226     5226     5226     5226     5226     5226     5226
   
  number of gridpoints: 
     atom        C9      C10      C11      C12      C13      H14      H15
  grid # 1       97       98       97       82       97      114      109
  grid # 2      353      352      340      284      350      440      436
  grid # 3       22       50       52        7       55      340      316
  grid # 4     4304     4304     4304     4304     4304     4304     4304
  grid # 5     1192     1192     1192     1192     1192     1192     1192
  grid # 6     5226     5226     5226     5226     5226     5226     5226
   
  number of gridpoints: 
     atom       H16      H17      H18      H19      H20      H21    total
  grid # 1      109      118      118      108       98      109     2103
  grid # 2      441      445      446      440      400      438     7946
  grid # 3      334      397      403      355      146      350     3810
  grid # 4     4304     4304     4304     4304     4304     4304    86080
  grid # 5     1192     1192     1192     1192     1192     1192    23840
  grid # 6     5226     5226     5226     5226     5226     5226   104520
   
  end of program grid
   
 Time(grid)  user:        0.8  user+sys:        0.8  wallclock:        0.8
  
  start of program rwr
  
  end of program rwr
   
 Time(rwr)  user:        0.6  user+sys:        0.6  wallclock:        0.6
  
  start of program scf
  
 Energy computed with NOPS off.
 Convergence Criterion:
    Energy (econv):       1.00E-05
    RMS density (dconv):  5.00E-06
  
       i  u  d  i  g                   
       t  p  i  c  r                                 RMS    maximum
       e  d  i  u  i                       energy  density   DIIS  
       r  t  s  t  d       total energy    change  change    error 
  
etot    1  N  N  2  U    -623.19667361196           5.6E-04  8.3E-03
etot    2  Y  Y  6  M    -623.20523626037  8.6E-03  1.3E-04  1.2E-03
etot    3  N  Y  2  U    -623.20516915412 -6.7E-05  9.2E-05  2.4E-03
etot    4  Y  Y  6  M    -623.20544979256  2.8E-04  1.8E-05  3.6E-04
etot    5  N  Y  2  U    -623.20546126513  1.1E-05  7.4E-06  1.9E-04
etot    6  N  Y  2  U    -623.20546270255  1.4E-06  3.4E-06  8.2E-05
etot    7  N  N  2  U    -623.20546286620  1.6E-07  0.0E+00  0.0E+00
 
  Computing the dispersion energy correction and its gradients...
  
  
 Energy components, in hartrees:
   (A)  Nuclear repulsion............     714.23838424674
   (E)  Total one-electron terms.....   -2251.26708637464
   (F)    Electron-nuclear...........   -2868.79925243999
   (H)    Kinetic....................     617.53216606535
   (I)  Total two-electron terms.....     913.82323926170
   (J)    Coulomb....................     995.61704800584
   (K)    Exchange+Correlation.......     -81.79380874414
   (L)  Electronic energy............   -1337.44384711294  (E+I)
   (M)  -V/T.........................       2.00918704662  (-(A+F+I)/H)
   (N0) D3 correction................      -0.01798327983
   (N)  Total energy.................    -623.22344614604  (A+L+N0)
   (O)  Gas phase energy.............    -623.22344614604
  
 SCFE: SCF energy: DFT(b3lyp-d3)      -623.22344614604 hartrees   iterations:   7
  
 
 HOMO energy:    -0.40919
 LUMO energy:    -0.22717
 
  Orbital energies (hartrees): 
   -19.30598   -19.30504   -19.28822   -14.62159   -14.56952   -14.54958
   -10.49471   -10.48168   -10.45319   -10.43660   -10.42192   -10.37323
    -1.23792    -1.21651    -1.20854    -1.16396    -1.14344    -1.09026
    -0.97228    -0.91421    -0.85244    -0.83083    -0.79366    -0.75965
    -0.75352    -0.72232    -0.70037    -0.67564    -0.66480    -0.64086
    -0.63508    -0.62398    -0.59312    -0.58592    -0.58235    -0.57197
    -0.56339    -0.55332    -0.51799    -0.45867    -0.44800    -0.43580
    -0.42286    -0.40919    -0.22717    -0.18977    -0.13821    -0.10874
    -0.07481    -0.07015    -0.04436    -0.03498    -0.03312    -0.02067
 
  end of program scf
   
 Time(scf)  user:        8.2  user+sys:        8.2  wallclock:        8.5
  
  start of program der1a
  
  end of program der1a
   
 Time(der1a)  user:        0.1  user+sys:        0.1  wallclock:        0.1
  
  start of program rwr
  
  end of program rwr
   
 Time(rwr)  user:        0.6  user+sys:        0.6  wallclock:        0.6
  
  start of program der1b
  
   
  forces (hartrees/bohr) : total     
   
 atom  label           x              y              z
 ---- --------   -------------  -------------  -------------
    1 O2          7.257350E-04  -3.375670E-04  -6.044364E-04
    2 O3         -1.470357E-03   9.388220E-07  -6.283274E-05
    3 O4         -1.574728E-03  -3.874392E-03  -1.233793E-04
    4 N5         -2.717909E-03  -3.087644E-03   8.111487E-04
    5 N6         -1.603761E-03  -4.531946E-03  -3.229854E-04
    6 N7          2.227456E-03   2.639992E-03   2.216872E-03
    7 C8          3.045403E-04  -3.223066E-04  -3.275044E-03
    8 C9         -1.042391E-03   3.649035E-05   4.443222E-03
    9 C10         9.558350E-04   1.000039E-04   1.406576E-04
   10 C11        -2.596523E-04   2.610883E-03   1.159958E-03
   11 C12        -4.802858E-03   1.201308E-03  -6.802930E-03
   12 C13         4.258857E-03   8.939493E-03  -8.850835E-06
   13 H14         1.349978E-04  -8.549514E-05   2.444413E-04
   14 H15         1.422376E-03  -2.608594E-04   6.219564E-04
   15 H16        -5.082306E-04   6.720844E-04   9.040270E-04
   16 H17         6.597199E-04   2.890523E-04  -4.294837E-05
   17 H18        -8.040899E-05   3.666052E-04  -4.871980E-05
   18 H19         8.810085E-04  -5.178177E-04   2.138548E-04
   19 H20         1.492694E-03  -2.775168E-03   9.068792E-05
   20 H21         7.112916E-04  -5.934416E-04   9.181737E-04
 -------------   -------------  -------------  -------------
     total       -2.857866E-04   4.702135E-04   4.728731E-04
   
  end of program der1b
   
 Time(der1b)  user:        3.5  user+sys:        3.5  wallclock:        3.5
  
  start of program geopt
  
 ----------------------------------------------------------------------------
  Geometry optimization step   5
  Total energy:      -623.22344614604 hartrees
 ----------------------------------------------------------------------------
  
  energy change:          -1.2839E-03 .  (  1.5000E-04 )
  gradient maximum:        6.4074E-03 .  (  1.3500E-03 )
  gradient rms:            1.8124E-03 .  (  9.0000E-04 )
  displacement maximum:    6.9397E-02 .  (  5.4000E-03 )
  displacement rms:        1.5163E-02 .  (  3.6000E-03 )
  
  predicted energy change:  -3.2380E-04
  step size:     0.11745
  trust radius:  0.30000
  
  molecular structure not yet converged...
  
  center of mass moved by:
     x:    -2.3481E-03     y:    -3.1659E-03     z:    -3.6558E-03
  
  new geometry: 
                                   angstroms
  atom               x                 y                 z
  O2            1.7080679165      1.6258811389     -0.4062299501 
  O3           -2.2448059483      0.6091297877      0.7544633485 
  O4           -1.3396327168     -3.7750640919     -0.1310084698 
  N5           -1.7433960097     -1.5540342321      0.3367889704 
  N6            0.3307748136     -2.2291767470     -0.4800701703 
  N7           -1.3603952577      2.9723918810      0.2625759591 
  C8           -0.0094628685      0.0714682347      0.0385530576 
  C9            0.6206986205      1.4059718287      0.0966441441 
  C10          -1.3859523616     -0.2228665237      0.4078261870 
  C11           0.7718654937     -0.9664207960     -0.4251519794 
  C12          -0.0483515095      2.5554666957      0.8861378832 
  C13          -0.9681296889     -2.6340747873     -0.0869838220 
  H14           1.7910728344     -0.7770654768     -0.7491756878 
  H15          -0.2928962303      2.2488240730      1.9053958672 
  H16           0.6388813125      3.4000875021      0.8783436871 
  H17          -2.6996874761     -1.7807677493      0.5954863643 
  H18           0.9283815316     -2.9824064693     -0.8041498218 
  H19          -1.7827105847      3.7611324537      0.7617476003 
  H20          -1.9776858884      2.1072722658      0.3678698516 
  H21          -1.2562740352      3.2399446662     -0.7207611472 
   
  nuclear repulsion energy.......     714.447040194 hartrees
  -------------------------------------------------
 /  end of geometry optimization iteration   5   /
 -------------------------------------------------
   
  end of program geopt
   
 Time(geopt)  user:        0.1  user+sys:        0.1  wallclock:        0.1
  
  start of program onee
  
  smallest eigenvalue of S:    9.946E-04
  number of canonical orbitals.....          220
  end of program onee
   
 Time(onee)  user:        0.1  user+sys:        0.1  wallclock:        0.1
  
  start of program probe
  
  end of program probe
   
 Time(probe)  user:        0.1  user+sys:        0.1  wallclock:        0.0
  
  start of program grid
  
   grid     grid set  grid #  grid sym
  ------    --------  ------  --------
  coarse        0        0        1
  medium        2        1        1
  fine          0        0        1
  ultrafine     4        2        1
  charge       -1        3        1
  gradient      4        2        1
  density       0        0        1
  DFT-fine    -11        4        1
  DFT-med.    -10        5        1
  DFT-grad    -12        6        1
  DFT-der2      0        0        1
  DFT-cphf      0        0        1
  LMP2-enrg     4        2        1
  LMP2-grad     2        1        1
  DFT-cphf2     0        0        1
  PBF-dens      0        0        1
  plotting      0        0        1
  Rel-grad    -17        0        1
  
  number of gridpoints: 
     atom        O2       O3       O4       N5       N6       N7       C8
  grid # 1      123      114      123      101      101       81      102
  grid # 2      498      465      507      345      341      269      359
  grid # 3      283      176      369       56       51        6       44
  grid # 4     4304     4304     4304     4304     4304     4304     4304
  grid # 5     1192     1192     1192     1192     1192     1192     1192
  grid # 6     5226     5226     5226     5226     5226     5226     5226
   
  number of gridpoints: 
     atom        C9      C10      C11      C12      C13      H14      H15
  grid # 1       96       98       97       82       97      114      110
  grid # 2      353      353      340      286      350      440      437
  grid # 3       20       51       52        7       55      336      321
  grid # 4     4304     4304     4304     4304     4304     4304     4304
  grid # 5     1192     1192     1192     1192     1192     1192     1192
  grid # 6     5226     5226     5226     5226     5226     5226     5226
   
  number of gridpoints: 
     atom       H16      H17      H18      H19      H20      H21    total
  grid # 1      109      118      118      108       98      109     2099
  grid # 2      442      446      446      438      394      438     7947
  grid # 3      328      397      403      353      134      355     3797
  grid # 4     4304     4304     4304     4304     4304     4304    86080
  grid # 5     1192     1192     1192     1192     1192     1192    23840
  grid # 6     5226     5226     5226     5226     5226     5226   104520
   
  end of program grid
   
 Time(grid)  user:        0.8  user+sys:        0.8  wallclock:        0.8
  
  start of program rwr
  
  end of program rwr
   
 Time(rwr)  user:        0.6  user+sys:        0.6  wallclock:        0.6
  
  start of program scf
  
 Energy computed with NOPS off.
 Convergence Criterion:
    Energy (econv):       1.00E-05
    RMS density (dconv):  5.00E-06
  
       i  u  d  i  g                   
       t  p  i  c  r                                 RMS    maximum
       e  d  i  u  i                       energy  density   DIIS  
       r  t  s  t  d       total energy    change  change    error 
  
etot    1  N  N  2  U    -623.20395351690           2.7E-04  2.6E-03
etot    2  Y  Y  6  M    -623.20595952073  2.0E-03  6.5E-05  3.7E-04
etot    3  Y  Y  6  M    -623.20592307921 -3.6E-05  4.4E-05  7.6E-04
etot    4  N  Y  2  U    -623.20601931752  9.6E-05  1.0E-05  1.7E-04
etot    5  N  Y  2  U    -623.20602137002  2.1E-06  4.4E-06  7.7E-05
etot    6  N  N  2  U    -623.20602173565  3.7E-07  0.0E+00  0.0E+00
 
  Computing the dispersion energy correction and its gradients...
  
  
 Energy components, in hartrees:
   (A)  Nuclear repulsion............     714.44704019395
   (E)  Total one-electron terms.....   -2251.63452245813
   (F)    Electron-nuclear...........   -2869.18940625949
   (H)    Kinetic....................     617.55488380136
   (I)  Total two-electron terms.....     913.98146052852
   (J)    Coulomb....................     995.78173130255
   (K)    Exchange+Correlation.......     -81.80027077403
   (L)  Electronic energy............   -1337.65306192961  (E+I)
   (M)  -V/T.........................       2.00915082705  (-(A+F+I)/H)
   (N0) D3 correction................      -0.01787238365
   (N)  Total energy.................    -623.22389411930  (A+L+N0)
   (O)  Gas phase energy.............    -623.22389411930
  
 SCFE: SCF energy: DFT(b3lyp-d3)      -623.22389411930 hartrees   iterations:   6
  
 
 HOMO energy:    -0.40967
 LUMO energy:    -0.22720
 
  Orbital energies (hartrees): 
   -19.30758   -19.30593   -19.28764   -14.61888   -14.57026   -14.55069
   -10.49503   -10.48345   -10.45361   -10.43682   -10.42159   -10.37405
    -1.23874    -1.21761    -1.20894    -1.16392    -1.14403    -1.09171
    -0.97286    -0.91401    -0.85334    -0.83243    -0.79454    -0.75962
    -0.75392    -0.72300    -0.70183    -0.67671    -0.66600    -0.64166
    -0.63600    -0.62331    -0.59350    -0.58628    -0.58260    -0.57273
    -0.56326    -0.55340    -0.51801    -0.46056    -0.44904    -0.43604
    -0.42307    -0.40967    -0.22720    -0.19057    -0.13838    -0.10847
    -0.07530    -0.06949    -0.04183    -0.03523    -0.03404    -0.01729
 
  end of program scf
   
 Time(scf)  user:        6.9  user+sys:        6.9  wallclock:        7.1
  
  start of program der1a
  
  end of program der1a
   
 Time(der1a)  user:        0.1  user+sys:        0.1  wallclock:        0.1
  
  start of program rwr
  
  end of program rwr
   
 Time(rwr)  user:        0.6  user+sys:        0.6  wallclock:        0.6
  
  start of program der1b
  
   
  forces (hartrees/bohr) : total     
   
 atom  label           x              y              z
 ---- --------   -------------  -------------  -------------
    1 O2          8.201889E-04   7.387158E-04   7.196246E-05
    2 O3         -7.632902E-04   7.371240E-05   4.107330E-04
    3 O4         -9.599727E-04  -1.768056E-03   6.533880E-05
    4 N5         -1.915404E-03  -8.547255E-04   7.163006E-04
    5 N6         -1.772951E-03  -3.647980E-03  -1.655858E-04
    6 N7          2.340522E-03   3.353299E-03   8.434553E-04
    7 C8         -7.923970E-04  -6.993177E-04  -2.110328E-03
    8 C9         -7.571967E-04   1.265605E-03   2.151977E-03
    9 C10         1.239899E-03  -6.264933E-04   7.517417E-05
   10 C11         5.621389E-04   2.321542E-03   9.587972E-04
   11 C12        -2.569829E-03   1.212710E-03  -3.728722E-03
   12 C13         2.812805E-03   4.234149E-03  -4.154722E-04
   13 H14        -1.384456E-04   1.869857E-05   2.585136E-04
   14 H15         1.768810E-03  -2.594285E-04   8.169992E-04
   15 H16         3.989397E-04  -9.410926E-05   1.049969E-03
   16 H17         2.252728E-04  -1.845629E-04  -9.789792E-05
   17 H18        -9.923150E-05  -3.380163E-05  -5.406709E-05
   18 H19         8.268228E-04  -3.619864E-04  -2.724289E-04
   19 H20        -1.457469E-03  -3.847951E-03  -8.490361E-04
   20 H21        -7.519338E-05  -3.734254E-04   7.829456E-04
 -------------   -------------  -------------  -------------
     total       -3.059810E-04   4.665950E-04   5.086277E-04
   
  end of program der1b
   
 Time(der1b)  user:        3.5  user+sys:        3.5  wallclock:        3.5
  
  start of program geopt
  
 ----------------------------------------------------------------------------
  Geometry optimization step   6
  Total energy:      -623.22389411930 hartrees
 ----------------------------------------------------------------------------
  
  energy change:          -4.4797E-04 .  (  1.5000E-04 )
  gradient maximum:        3.8770E-03 .  (  1.3500E-03 )
  gradient rms:            1.3012E-03 .  (  9.0000E-04 )
  displacement maximum:    1.0391E-01 .  (  5.4000E-03 )
  displacement rms:        2.2274E-02 .  (  3.6000E-03 )
  
  predicted energy change:  -2.9747E-04
  step size:     0.17253
  trust radius:  0.30000
  
  molecular structure not yet converged...
  
  center of mass moved by:
     x:    -2.4387E-03     y:    -3.3970E-03     z:     7.5140E-04
  
  new geometry: 
                                   angstroms
  atom               x                 y                 z
  O2            1.7441810517      1.5998015088     -0.3490501873 
  O3           -2.2616227027      0.6041587714      0.7390958335 
  O4           -1.3443952046     -3.7708484952     -0.1471438715 
  N5           -1.7505573897     -1.5542375365      0.3259224461 
  N6            0.3287932278     -2.2277573336     -0.4802727640 
  N7           -1.3706731854      2.9623597641      0.2757148941 
  C8           -0.0169116162      0.0774593191      0.0342704265 
  C9            0.6305816270      1.4084443464      0.1079680020 
  C10          -1.3943363077     -0.2224238354      0.3953095239 
  C11           0.7697771388     -0.9629754399     -0.4159004338 
  C12          -0.0370321902      2.5809750309      0.8561059774 
  C13          -0.9706333328     -2.6282208006     -0.0974539517 
  H14           1.7945917276     -0.7735414836     -0.7211735101 
  H15          -0.2199633937      2.3040469132      1.8983191968 
  H16           0.6436981060      3.4297591492      0.8050960229 
  H17          -2.7069703829     -1.7821735216      0.5807918614 
  H18           0.9283244990     -2.9804929249     -0.8014158566 
  H19          -1.7969290247      3.7332925416      0.7961428028 
  H20          -1.9675920125      2.0698024830      0.3828537685 
  H21          -1.2961599326      3.2442177890     -0.7048372051 
   
  nuclear repulsion energy.......     714.186796352 hartrees
  -------------------------------------------------
 /  end of geometry optimization iteration   6   /
 -------------------------------------------------
   
  end of program geopt
   
 Time(geopt)  user:        0.1  user+sys:        0.1  wallclock:        0.1
  
  start of program onee
  
  smallest eigenvalue of S:    9.918E-04
  number of canonical orbitals.....          220
  end of program onee
   
 Time(onee)  user:        0.1  user+sys:        0.1  wallclock:        0.1
  
  start of program probe
  
  end of program probe
   
 Time(probe)  user:        0.1  user+sys:        0.1  wallclock:        0.0
  
  start of program grid
  
   grid     grid set  grid #  grid sym
  ------    --------  ------  --------
  coarse        0        0        1
  medium        2        1        1
  fine          0        0        1
  ultrafine     4        2        1
  charge       -1        3        1
  gradient      4        2        1
  density       0        0        1
  DFT-fine    -11        4        1
  DFT-med.    -10        5        1
  DFT-grad    -12        6        1
  DFT-der2      0        0        1
  DFT-cphf      0        0        1
  LMP2-enrg     4        2        1
  LMP2-grad     2        1        1
  DFT-cphf2     0        0        1
  PBF-dens      0        0        1
  plotting      0        0        1
  Rel-grad    -17        0        1
  
  number of gridpoints: 
     atom        O2       O3       O4       N5       N6       N7       C8
  grid # 1      123      114      123      100      101       80      102
  grid # 2      498      464      507      342      341      265      360
  grid # 3      284      179      369       56       51        6       44
  grid # 4     4304     4304     4304     4304     4304     4304     4304
  grid # 5     1192     1192     1192     1192     1192     1192     1192
  grid # 6     5226     5226     5226     5226     5226     5226     5226
   
  number of gridpoints: 
     atom        C9      C10      C11      C12      C13      H14      H15
  grid # 1       96       98       97       83       97      114      110
  grid # 2      354      354      340      286      350      440      438
  grid # 3       18       51       52        6       55      337      328
  grid # 4     4304     4304     4304     4304     4304     4304     4304
  grid # 5     1192     1192     1192     1192     1192     1192     1192
  grid # 6     5226     5226     5226     5226     5226     5226     5226
   
  number of gridpoints: 
     atom       H16      H17      H18      H19      H20      H21    total
  grid # 1      109      118      118      109       98      109     2099
  grid # 2      444      445      446      438      395      439     7946
  grid # 3      329      395      403      351      132      354     3800
  grid # 4     4304     4304     4304     4304     4304     4304    86080
  grid # 5     1192     1192     1192     1192     1192     1192    23840
  grid # 6     5226     5226     5226     5226     5226     5226   104520
   
  end of program grid
   
 Time(grid)  user:        0.8  user+sys:        0.8  wallclock:        0.8
  
  start of program rwr
  
  end of program rwr
   
 Time(rwr)  user:        0.6  user+sys:        0.6  wallclock:        0.6
  
  start of program scf
  
 Energy computed with NOPS off.
 Convergence Criterion:
    Energy (econv):       1.00E-05
    RMS density (dconv):  5.00E-06
  
       i  u  d  i  g                   
       t  p  i  c  r                                 RMS    maximum
       e  d  i  u  i                       energy  density   DIIS  
       r  t  s  t  d       total energy    change  change    error 
  
etot    1  N  N  2  U    -623.20288452444           3.4E-04  3.8E-03
etot    2  Y  Y  6  M    -623.20636698975  3.5E-03  6.9E-05  5.3E-04
etot    3  Y  Y  6  M    -623.20635717399 -9.8E-06  4.6E-05  1.3E-03
etot    4  N  Y  2  U    -623.20645448251  9.7E-05  1.4E-05  4.2E-04
etot    5  N  Y  2  U    -623.20645932571  4.8E-06  5.2E-06  7.4E-05
etot    6  N  Y  2  U    -623.20645984784  5.2E-07  3.1E-06  3.3E-05
etot    7  N  N  2  U    -623.20645992193  7.4E-08  0.0E+00  0.0E+00
 
  Computing the dispersion energy correction and its gradients...
  
  
 Energy components, in hartrees:
   (A)  Nuclear repulsion............     714.18679635187
   (E)  Total one-electron terms.....   -2251.08309113092
   (F)    Electron-nuclear...........   -2868.63271748023
   (H)    Kinetic....................     617.54962634931
   (I)  Total two-electron terms.....     913.68983485712
   (J)    Coulomb....................     995.48966917782
   (K)    Exchange+Correlation.......     -81.79983432070
   (L)  Electronic energy............   -1337.39325627380  (E+I)
   (M)  -V/T.........................       2.00916012792  (-(A+F+I)/H)
   (N0) D3 correction................      -0.01774852093
   (N)  Total energy.................    -623.22420844286  (A+L+N0)
   (O)  Gas phase energy.............    -623.22420844286
  
 SCFE: SCF energy: DFT(b3lyp-d3)      -623.22420844286 hartrees   iterations:   7
  
 
 HOMO energy:    -0.41049
 LUMO energy:    -0.22744
 
  Orbital energies (hartrees): 
   -19.30939   -19.30548   -19.28689   -14.61651   -14.57114   -14.55186
   -10.49490   -10.48524   -10.45465   -10.43756   -10.42138   -10.37587
    -1.23938    -1.21811    -1.20891    -1.16311    -1.14385    -1.09286
    -0.97337    -0.91428    -0.85401    -0.83370    -0.79500    -0.75860
    -0.75317    -0.72333    -0.70345    -0.67792    -0.66842    -0.64230
    -0.63681    -0.62241    -0.59371    -0.58675    -0.58213    -0.57340
    -0.56321    -0.55219    -0.51750    -0.46212    -0.44976    -0.43569
    -0.42310    -0.41049    -0.22744    -0.19149    -0.13811    -0.10857
    -0.07569    -0.06871    -0.03981    -0.03541    -0.03500    -0.01595
 
  end of program scf
   
 Time(scf)  user:        8.2  user+sys:        8.2  wallclock:        8.5
  
  start of program der1a
  
  end of program der1a
   
 Time(der1a)  user:        0.1  user+sys:        0.1  wallclock:        0.1
  
  start of program rwr
  
  end of program rwr
   
 Time(rwr)  user:        0.6  user+sys:        0.6  wallclock:        0.6
  
  start of program der1b
  
   
  forces (hartrees/bohr) : total     
   
 atom  label           x              y              z
 ---- --------   -------------  -------------  -------------
    1 O2         -3.939203E-04   2.727170E-04   5.655240E-04
    2 O3          1.997646E-04   1.036598E-03   8.265485E-06
    3 O4          1.198069E-04   1.112126E-03   1.671308E-04
    4 N5         -1.278861E-04   1.842046E-03   4.289212E-04
    5 N6         -6.314542E-04   3.085297E-04   1.789114E-04
    6 N7          9.701223E-04   3.138995E-04   5.714359E-04
    7 C8         -7.844211E-06  -7.201244E-04  -1.264447E-03
    8 C9          1.556472E-04   3.068897E-04  -4.562167E-04
    9 C10        -1.143183E-04  -6.653128E-04   3.132137E-04
   10 C11         3.738912E-04   6.056820E-04   5.937979E-04
   11 C12         3.457490E-04   2.447984E-04   3.271122E-04
   12 C13         3.103494E-04  -2.327626E-03  -5.996083E-04
   13 H14        -1.242109E-04  -8.969657E-05  -1.640134E-05
   14 H15         5.009262E-05   1.736549E-04   1.056714E-04
   15 H16         1.925062E-04   4.047314E-06   1.483159E-04
   16 H17        -1.595334E-04  -3.915448E-04  -6.715765E-05
   17 H18        -1.101572E-05  -1.236750E-04   2.231839E-05
   18 H19        -2.135840E-04   1.683421E-04  -1.540093E-04
   19 H20        -1.138170E-03  -1.783218E-03  -6.334799E-05
   20 H21        -3.091922E-04   4.579746E-05  -1.897315E-04
 -------------   -------------  -------------  -------------
     total       -5.132002E-04   3.339297E-04   6.196983E-04
   
  end of program der1b
   
 Time(der1b)  user:        3.4  user+sys:        3.4  wallclock:        3.4
  
  start of program geopt
  
 ----------------------------------------------------------------------------
  Geometry optimization step   7
  Total energy:      -623.22420844286 hartrees
 ----------------------------------------------------------------------------
  
  energy change:          -3.1432E-04 .  (  1.5000E-04 )
  gradient maximum:        5.4423E-03 .  (  1.3500E-03 )
  gradient rms:            1.1844E-03 .  (  9.0000E-04 )
  displacement maximum:    5.5268E-02 .  (  5.4000E-03 )
  displacement rms:        1.1721E-02 .  (  3.6000E-03 )
  
  predicted energy change:  -7.4875E-05
  step size:     0.09079
  trust radius:  0.30000
  
  molecular structure not yet converged...
  
  center of mass moved by:
     x:     3.5535E-04     y:     2.8614E-03     z:    -1.0292E-03
  
  new geometry: 
                                   angstroms
  atom               x                 y                 z
  O2            1.7671998102      1.5861076432     -0.3160793848 
  O3           -2.2671709079      0.6084905953      0.7261550893 
  O4           -1.3546155158     -3.7652989076     -0.1563145583 
  N5           -1.7558605530     -1.5472289441      0.3151749038 
  N6            0.3258035825     -2.2265733474     -0.4760827807 
  N7           -1.3796753376      2.9416098651      0.2893015886 
  C8           -0.0174098346      0.0807901355      0.0304268846 
  C9            0.6400826302      1.4095002806      0.1113236631 
  C10          -1.3969215875     -0.2175898406      0.3846907862 
  C11           0.7704563365     -0.9638116387     -0.4087031952 
  C12          -0.0267512824      2.5921853757      0.8423643643 
  C13          -0.9771047141     -2.6249955332     -0.1039174337 
  H14           1.7989953281     -0.7784171338     -0.7033929931 
  H15          -0.1760594170      2.3371668936      1.8960061716 
  H16           0.6437980052      3.4465694231      0.7569803000 
  H17          -2.7147140120     -1.7733190012      0.5636002974 
  H18           0.9261220901     -2.9813375942     -0.7913343608 
  H19          -1.8126933528      3.7052910873      0.8151428191 
  H20          -1.9574607966      2.0292541901      0.4092393335 
  H21          -1.3336112228      3.2229695795     -0.6933489387 
   
  nuclear repulsion energy.......     714.446010931 hartrees
  -------------------------------------------------
 /  end of geometry optimization iteration   7   /
 -------------------------------------------------
   
  end of program geopt
   
 Time(geopt)  user:        0.1  user+sys:        0.1  wallclock:        0.1
  
  start of program onee
  
  smallest eigenvalue of S:    9.901E-04
  number of canonical orbitals.....          220
  end of program onee
   
 Time(onee)  user:        0.1  user+sys:        0.1  wallclock:        0.1
  
  start of program probe
  
  end of program probe
   
 Time(probe)  user:        0.1  user+sys:        0.1  wallclock:        0.1
  
  start of program grid
  
   grid     grid set  grid #  grid sym
  ------    --------  ------  --------
  coarse        0        0        1
  medium        2        1        1
  fine          0        0        1
  ultrafine     4        2        1
  charge       -1        3        1
  gradient      4        2        1
  density       0        0        1
  DFT-fine    -11        4        1
  DFT-med.    -10        5        1
  DFT-grad    -12        6        1
  DFT-der2      0        0        1
  DFT-cphf      0        0        1
  LMP2-enrg     4        2        1
[...]
  
  
 Energy components, in hartrees:
   (A)  Total zero-electron terms....     687.55388132581
   (B)    Nuclear-nuclear............     699.88712616227
   (C)    Nuclear-solvent............     -12.33324483646
   (E)  Total one-electron terms.....   -2211.73345217025
   (F)    Electron-nuclear...........   -2841.03979074909
   (G)    Electron-solvent...........      12.03144490836
   (H)    Kinetic....................     617.27489367048
   (I)  Total two-electron terms.....     900.69067256816
   (J)    Coulomb....................     982.45673697467
   (K)    Exchange+Correlation.......     -81.76606440651
   (L)  Electronic energy............   -1311.04277960209  (E+I)
   (N0) D3 correction................      -0.01719544343
   (N)  Total quantum mech. energy...    -623.50609371971  (A+L+N0)
   (O)  Gas phase energy.............    -623.22428029606
   (P)  Solution phase energy........    -623.35081053954  (Q+R+S+T)
   (Q)    Total solute energy........    -623.20429379162  (N-C-G)
   (R)    Total solvent energy.......      -0.15089996405  (C/2+G/2)
   (S)    Solute cavity energy.......       0.00438321613
   (T)    First shell corr. factor...       0.00000000000
   (U)  Reorganization energy........       0.01998650444  (Q-O)
   (V)  Solvation energy.............      -0.12653024348  (P-O)
  
 SCFE:  Solution phase energy: DFT(b3lyp-d3)       -623.35081053954 hartrees
        SCF iterations:   5
  
 
 HOMO energy:    -0.26584
 LUMO energy:    -0.07920
 
  Orbital energies (hartrees): 
   -19.16487   -19.15299   -19.14830   -14.44963   -14.42211   -14.40275
   -10.35958   -10.33012   -10.31388   -10.28816   -10.25889   -10.22828
    -1.09271    -1.06773    -1.06055    -0.99589    -0.98576    -0.94012
    -0.82304    -0.75733    -0.70243    -0.67754    -0.63815    -0.58572
    -0.57117    -0.56951    -0.54414    -0.52446    -0.49732    -0.49351
    -0.48696    -0.47102    -0.45291    -0.45077    -0.43947    -0.42699
    -0.41808    -0.39535    -0.37224    -0.31474    -0.30214    -0.29170
    -0.28327    -0.26584    -0.07920    -0.03387     0.01313     0.05002
     0.07849     0.11276     0.11450     0.11816     0.12437     0.13098
 
  end of program scf
   
 Time(scf)  user:        7.2  user+sys:        7.2  wallclock:        7.4
  
  start of program sole
  
    SCRF                   solvation energy
  iteration          Hartrees            kcal/mol
     0               0.0000000            0.0000
     1              -0.1265302          -79.3989
  
  solvation energy not yet converged... 
  
  end of program sole
   
 Time(sole)  user:        0.1  user+sys:        0.1  wallclock:        0.0
  
  start of program ch
  
  gridpoints used for charge fit         3710
    out of a possible maximum of         3710
  
   Electrostatic potential fitting constrained to reproduce
     total charge:                yes
     dipole moment:               no 
     traceless quadrupole moment: no 
     traceless octupole moment:   no 
  
  Atomic charges from electrostatic potential: 
   
 Atom       O2           O3           O4           N5           N6      
 Charge   -0.52771     -0.62256     -0.60329     -0.58526     -0.48894
   
 Atom       N7           C8           C9           C10          C11     
 Charge   -0.49227     -0.56425      0.54544      0.78929      0.35137
   
 Atom       C12          C13          H14          H15          H16     
 Charge    0.11879      0.78557      0.13639      0.09960      0.09932
   
 Atom       H17          H18          H19          H20          H21     
 Charge    0.38948      0.40536      0.40108      0.38136      0.38126
  
  sum of atomic charges:     1.000000
   
 RMS Error   7.36E-04 hartrees
 
  end of program ch
   
 Time(ch)  user:        0.9  user+sys:        0.9  wallclock:        1.1
  
  start of program post
  
  Writing input files for PBF
  end of program post
   
 Time(post)  user:        0.8  user+sys:        0.8  wallclock:        1.0

  start of program pbf

Pbf Version 4.10

Molecular surface area:      170.14815   [A2]
Reaction field energy:      -157.88647   [kT]

Solvent-accessible surface area:  341.26255 [A2]
Cavity energy:                      4.64466 [kT]

  Peak memory usage: 482 Mb

  end of program pbf

 Time(pbf)  user:        0.2  user+sys:        0.3  wallclock:        0.3
  
  start of program solv
  
   number of surface charges from PBF    2350
   sum of surface charges     -0.98632
   
  nuclear repulsion energy.......     699.887126162 hartrees
  end of program solv
   
 Time(solv)  user:        0.2  user+sys:        0.2  wallclock:        0.2
  
  start of program scf
  
 Energy computed with NOPS off.
 Convergence Criterion:
    Energy (econv):       1.00E-05
    RMS density (dconv):  5.00E-06
  
       i  u  d  i  g                   
       t  p  i  c  r                                 RMS    maximum
       e  d  i  u  i                       energy  density   DIIS  
       r  t  s  t  d       total energy    change  change    error 
  
etot    1  N  N  2  U    -623.48890852223           1.1E-06  1.1E-05
etot    2  N  N  2  U    -623.48890851453 -7.7E-09  0.0E+00  0.0E+00
 
  Computing the dispersion energy correction and its gradients...
  
  
 Energy components, in hartrees:
   (A)  Total zero-electron terms....     687.55319645165
   (B)    Nuclear-nuclear............     699.88712616227
   (C)    Nuclear-solvent............     -12.33392971062
   (E)  Total one-electron terms.....   -2211.73271712249
   (F)    Electron-nuclear...........   -2841.04066125338
   (G)    Electron-solvent...........      12.03210959576
   (H)    Kinetic....................     617.27583453513
   (I)  Total two-electron terms.....     900.69061215631
   (J)    Coulomb....................     982.45682650284
   (K)    Exchange+Correlation.......     -81.76621434653
   (L)  Electronic energy............   -1311.04210496618  (E+I)
   (N0) D3 correction................      -0.01719544343
   (N)  Total quantum mech. energy...    -623.50610395796  (A+L+N0)
   (O)  Gas phase energy.............    -623.22428029606
   (P)  Solution phase energy........    -623.35081068440  (Q+R+S+T)
   (Q)    Total solute energy........    -623.20428384310  (N-C-G)
   (R)    Total solvent energy.......      -0.15091005743  (C/2+G/2)
   (S)    Solute cavity energy.......       0.00438321613
   (T)    First shell corr. factor...       0.00000000000
   (U)  Reorganization energy........       0.01999645296  (Q-O)
   (V)  Solvation energy.............      -0.12653038834  (P-O)
  
 SCFE:  Solution phase energy: DFT(b3lyp-d3)       -623.35081068440 hartrees
        SCF iterations:   2
  
 
 HOMO energy:    -0.26585
 LUMO energy:    -0.07920
 
  Orbital energies (hartrees): 
   -19.16476   -19.15296   -19.14813   -14.44948   -14.42229   -14.40276
   -10.35969   -10.33014   -10.31388   -10.28817   -10.25884   -10.22833
    -1.09274    -1.06769    -1.06051    -0.99595    -0.98569    -0.94015
    -0.82306    -0.75731    -0.70247    -0.67757    -0.63817    -0.58570
    -0.57117    -0.56946    -0.54414    -0.52448    -0.49727    -0.49354
    -0.48694    -0.47100    -0.45289    -0.45078    -0.43943    -0.42697
    -0.41807    -0.39534    -0.37225    -0.31475    -0.30213    -0.29165
    -0.28322    -0.26585    -0.07920    -0.03386     0.01311     0.05005
     0.07846     0.11277     0.11448     0.11819     0.12440     0.13101
 
  end of program scf
   
 Time(scf)  user:        2.2  user+sys:        2.2  wallclock:        2.4
  
  start of program sole
  
    SCRF                   solvation energy
  iteration          Hartrees            kcal/mol
     0               0.0000000            0.0000
     1              -0.1265302          -79.3989
     2              -0.1265304          -79.3990
  
  stopping: solvation energy converged
  
  iterations:   2    sfinal:    -79.3990 kcal/mol
  
  end of program sole
   
 Time(sole)  user:        0.1  user+sys:        0.1  wallclock:        0.0
  
  start of program ch
  
  gridpoints used for charge fit         3710
    out of a possible maximum of         3710
  
   Electrostatic potential fitting constrained to reproduce
     total charge:                yes
     dipole moment:               no 
     traceless quadrupole moment: no 
     traceless octupole moment:   no 
  
  Atomic charges from electrostatic potential: 
   
 Atom       O2           O3           O4           N5           N6      
 Charge   -0.52777     -0.62267     -0.60347     -0.58529     -0.48882
   
 Atom       N7           C8           C9           C10          C11     
 Charge   -0.49244     -0.56415      0.54547      0.78937      0.35133
   
 Atom       C12          C13          H14          H15          H16     
 Charge    0.11870      0.78574      0.13639      0.09966      0.09933
   
 Atom       H17          H18          H19          H20          H21     
 Charge    0.38946      0.40531      0.40111      0.38147      0.38127
  
  sum of atomic charges:     1.000000
   
 RMS Error   7.36E-04 hartrees
 
  end of program ch
   
 Time(ch)  user:        1.0  user+sys:        1.0  wallclock:        1.2
  
  start of program post
  
  Writing input files for PBF
  end of program post
   
 Time(post)  user:        0.8  user+sys:        0.8  wallclock:        0.9

  start of program pbf

Pbf Version 4.10
  Peak memory usage: 482 Mb

  end of program pbf

 Time(pbf)  user:        0.2  user+sys:        0.3  wallclock:        0.3
  
  start of program der1a
  
  end of program der1a
   
 Time(der1a)  user:        1.3  user+sys:        1.3  wallclock:        1.3
  
  start of program dsolv
  
   
  end of program dsolv
   
 Time(dsolv)  user:        0.1  user+sys:        0.1  wallclock:        0.0
  
  start of program rwr
  
  end of program rwr
   
 Time(rwr)  user:        0.6  user+sys:        0.6  wallclock:        0.6
  
  start of program der1b
  
   
  forces (hartrees/bohr) : total     
   
 atom  label           x              y              z
 ---- --------   -------------  -------------  -------------
    1 O2         -4.027210E-05   4.678068E-04   8.523145E-05
    2 O3         -2.515230E-04   7.014253E-04   2.209502E-04
    3 O4          1.298216E-04   6.806629E-04  -2.702742E-05
    4 N5         -2.995206E-04   3.487328E-04  -4.250625E-05
    5 N6          1.284859E-04   3.846787E-04   1.710081E-04
    6 N7         -1.017300E-04   2.426987E-04   8.927970E-05
    7 C8          3.067198E-04   4.372695E-04  -2.384766E-05
    8 C9         -1.349265E-04   3.050088E-04  -3.408135E-05
    9 C10         2.019091E-04   1.938449E-04  -1.153912E-04
   10 C11        -9.129088E-05   3.594669E-04  -4.690821E-05
   11 C12        -1.126030E-04   2.048724E-04   8.420363E-05
   12 C13         1.035262E-04   1.606163E-04  -4.040074E-07
   13 H14        -1.123659E-04   4.109491E-04   1.101196E-05
   14 H15         7.163997E-05   4.557510E-04  -7.893898E-05
   15 H16         1.185376E-04   6.109369E-04  -3.321289E-05
   16 H17         1.298275E-04   4.592635E-04  -1.226566E-05
   17 H18        -2.379669E-05   4.142402E-04  -1.446133E-04
   18 H19         5.671124E-05   3.994137E-04  -1.997455E-05
   19 H20         1.457379E-04   5.105240E-04   1.630650E-04
   20 H21        -6.164186E-05   4.947197E-04  -1.194058E-04
 -------------   -------------  -------------  -------------
     total        1.632462E-04   8.242882E-03   1.261728E-04
   
  end of program der1b
   
 Time(der1b)  user:        3.4  user+sys:        3.4  wallclock:        3.4
  
  start of program geopt
  
 ----------------------------------------------------------------------------
  Geometry optimization step  57
  Total energy:      -623.35081068440 hartrees
 ----------------------------------------------------------------------------
  
  energy change:           6.1707E-05 *  (  1.5000E-04 )
  gradient maximum:        4.5702E-04 *  (  1.3500E-03 )
  gradient rms:            1.4856E-04 #  (  9.0000E-04 )
  displacement maximum:    4.1925E-03 *  (  5.4000E-03 )
  displacement rms:        1.2967E-03 *  (  3.6000E-03 )
  
  predicted energy change:  -1.9805E-06
  step size:     0.01004
  trust radius:  0.03523
  
  ********************************************************
  **           Geometry optimization complete           **
  ********************************************************
  
  Checking the geometry optimization convergence pattern ...
  
  WARNING:
  There were   57 geometry optimization steps,
  which indicates difficult convergence and can be
  symptomatic of potential problems with the initial
  and/or the final (converged) structures.
  
  WARNING:
  The energy on the last optimization iteration,
     -623.350810684403
  is higher than the energy on one of the previous iterations,
     -623.350866704482
  The difference between these two energies is 0.035 kcal/mole.
  This situation is symptomatic of potential problems with the
  initial and/or the converged structures.
  
  best                    worst
  ==0=====1=====2=====3=====4==
                      ^        
  
  Convergence category 3: convergence to a non-optimal structure.
  The difference between the final and the minimal
  energies is less than 0.100 kcal/mole.
  PBF optimization:
  
  Number of imaginary frequencies:   0
  
  center of mass moved by:
     x:     0.0000E+00     y:     0.0000E+00     z:     0.0000E+00
  
  final geometry: 
                                   angstroms
  atom               x                 y                 z
  O2            0.7528016622      1.9178486374     -1.0583578024 
  O3           -2.0319640702      0.0783018124      1.5829086525 
  O4           -0.6368654429     -4.0379226903      0.1462875931 
  N5           -1.3103955613     -1.9536227899      0.8468576088 
  N6            0.3581242433     -2.1746235874     -0.7599884513 
  N7           -0.5154009342      3.9062368818      0.1794043750 
  C8           -0.3016828387      0.0309253616     -0.0864319576 
  C9           -0.0859566781      1.4883567676     -0.2671803845 
  C10          -1.2766390031     -0.5493821243      0.8413914183 
  C11           0.4692920168     -0.8315798387     -0.8381057577 
  C12          -0.9155121091      2.4966151066      0.5359383021 
  C13          -0.5466150639     -2.8201665733      0.0908332792 
  H14           1.2106198583     -0.4569024616     -1.5371282373 
  H15          -1.9822296018      2.3764880412      0.3275184028 
  H16          -0.7672574114      2.3543865054      1.6098150103 
  H17          -1.9809810380     -2.3917663703      1.4810547674 
  H18           0.9493120480     -2.7799343675     -1.3324967663 
  H19          -1.0727961778      4.5856454734      0.7169590998 
  H20          -0.6613345482      4.1096362239     -0.8200034436 
  H21           0.4772105551      4.0909169105      0.3841692265 
   
  bond lengths (angstroms):
 O2      -C9      :   1.230423
 O3      -C10     :   1.230590
 O4      -C13     :   1.222354
 N5      -C10     :   1.404657
 N5      -C13     :   1.380519
 N5      -H17     :   1.021695
 N6      -C11     :   1.349899
 N6      -C13     :   1.399706
 N6      -H18     :   1.021602
 N7      -C12     :   1.508058
 N7      -H19     :   1.030170
 N7      -H20     :   1.030283
 N7      -H21     :   1.030200
 C8      -C9      :   1.484356
 C8      -C10     :   1.465658
 C8      -C11     :   1.379613
 C9      -C12     :   1.532888
 C11     -H14     :   1.085625
 C12     -H15     :   1.093506
 C12     -H16     :   1.093352
  
  bond angles:
 C13     -N5      -C10     : 127.740158
 H17     -N5      -C10     : 116.545066
 H17     -N5      -C13     : 115.714216
 C13     -N6      -C11     : 123.179513
 H18     -N6      -C11     : 120.624953
 H18     -N6      -C13     : 116.195157
 H19     -N7      -C12     : 110.459280
 H20     -N7      -C12     : 112.103957
 H20     -N7      -H19     : 107.417557
 H21     -N7      -C12     : 112.099027
 H21     -N7      -H19     : 107.420644
 H21     -N7      -H20     : 107.091034
 C10     -C8      -C9      : 124.229914
 C11     -C8      -C9      : 117.792887
 C11     -C8      -C10     : 117.976857
 C8      -C9      -O2      : 121.338874
 C12     -C9      -O2      : 118.437714
 C12     -C9      -C8      : 120.223320
 N5      -C10     -O3      : 119.526167
 C8      -C10     -O3      : 126.000512
 C8      -C10     -N5      : 114.473272
 C8      -C11     -N6      : 122.987315
 H14     -C11     -N6      : 115.904318
 H14     -C11     -C8      : 121.108350
 C9      -C12     -N7      : 110.326526
 H15     -C12     -N7      : 108.447718
 H15     -C12     -C9      : 110.842344
 H16     -C12     -N7      : 108.531493
 H16     -C12     -C9      : 110.833174
 H16     -C12     -H15     : 107.769408
 N5      -C13     -O4      : 124.030894
 N6      -C13     -O4      : 122.327963
 N6      -C13     -N5      : 113.641116
  
  torsional angles:
 O2      -C9      -C8      -C10     : 179.673204
 O2      -C9      -C8      -C11     :  -0.109095
 O2      -C9      -C12     -N7      :  -0.104033
 O2      -C9      -C12     -H15     : 120.035692
 O2      -C9      -C12     -H16     :-120.342680
 O3      -C10     -N5      -C13     : 179.934806
 O3      -C10     -N5      -H17     :   0.220821
 O3      -C10     -C8      -C9      :  -0.116449
 O3      -C10     -C8      -C11     : 179.665480
 O4      -C13     -N5      -C10     :-179.662576
 O4      -C13     -N5      -H17     :   0.053437
 O4      -C13     -N6      -C11     : 179.787444
 O4      -C13     -N6      -H18     :  -0.435160
 N5      -C10     -C8      -C9      : 179.964760
 N5      -C10     -C8      -C11     :  -0.253311
 N5      -C13     -N6      -C11     :  -0.270076
 N5      -C13     -N6      -H18     : 179.507319
 N6      -C11     -C8      -C9      :-179.827383
 N6      -C11     -C8      -C10     :   0.376427
 N6      -C13     -N5      -C10     :   0.396073
 N6      -C13     -N5      -H17     :-179.887914
 N7      -C12     -C9      -C8      :-179.995365
 C8      -C9      -C12     -H15     : -59.855640
 C8      -C9      -C12     -H16     :  59.765988
 C8      -C10     -N5      -C13     :  -0.140699
 C8      -C10     -N5      -H17     :-179.854684
 C8      -C11     -N6      -C13     :  -0.103589
 C8      -C11     -N6      -H18     :-179.871471
 C9      -C8      -C11     -H14     :   0.124044
 C9      -C12     -N7      -H19     : 179.909181
 C9      -C12     -N7      -H20     :  60.150357
 C9      -C12     -N7      -H21     : -60.331350
 C10     -C8      -C9      -C12     :  -0.438674
 C10     -C8      -C11     -H14     :-179.672146
 C11     -C8      -C9      -C12     : 179.779027
 C13     -N6      -C11     -H14     : 179.942644
 H14     -C11     -N6      -H18     :   0.174762
 H15     -C12     -N7      -H19     :  58.338502
 H15     -C12     -N7      -H20     : -61.420322
 H15     -C12     -N7      -H21     : 178.097971
 H16     -C12     -N7      -H19     : -58.477792
 H16     -C12     -N7      -H20     :-178.236616
 H16     -C12     -N7      -H21     :  61.281678
  
  principal moments of inertia:
        amu*angstrom^2:      222.06732      942.04351     1158.18797
                g*cm^2: 3.68751414E-38 1.56429986E-37 1.92321613E-37
   
  rotational constants:
               cm^(-1):      0.07591225      0.01789475      0.01455518
                   GHz:      2.27579190      0.53647098      0.43635318
   
  nuclear repulsion energy.......     699.887126162 hartrees
  -------------------------------------------------
 /  end of geometry optimization iteration  57   /
 -------------------------------------------------
   
  end of program geopt
   
 Time(geopt)  user:        1.0  user+sys:        1.0  wallclock:        1.1
  
  start of program post
  
  Writing input files for PBF
  end of program post
   
 Time(post)  user:        0.9  user+sys:        0.9  wallclock:        1.1

 Total cpu seconds     user:    1214.818   user+sys:    1214.818
  
 Total elapsed time:    1816 seconds

Job jag_232005bond_opt_B3LYP-D3_6-31Gss completed on vm-linux1 at Mon May 26 14:47:13 2025
